<UPF version="2.0.1">
  <PP_INFO>
    Generated using FHI98PP, converted with fhi2upf.x v.5.0.1
    Author: Abinit web site
    Generation date: 10-Jul-2012, PG
    Pseudopotential type: SL
    Element: Ac
    Functional: SLA-PW

    Suggested minimum cutoff for wavefunctions:   0. Ry
    Suggested minimum cutoff for charge density:   0. Ry
    The Pseudo was generated with a Non-Relativistic Calculation
    L component and cutoff radius for Local Potential:  0   0.0000

    Valence configuration: 
    nl pn  l   occ       Rcut    Rcut US       E pseu
    7s  7  0  2.00      0.000      0.000     0.000000
    7p  7  1  0.00      0.000      0.000     0.000000
    6d  6  2  1.00      0.000      0.000     0.000000
    5f  5  3  0.00      0.000      0.000     0.000000

    Generation configuration: not available.
    Comment:
    actinium, fhi98PP : Trouiller-Martins-type, LDA Ceperley/Alder Perdew/Wang (1992
  </PP_INFO>
  <!--                               -->
  <!-- END OF HUMAN READABLE SECTION -->
  <!--                               -->
  <PP_HEADER generated="Generated using FHI98PP, converted with fhi2upf.x v.5.0.1"
             author="Abinit web site"
             date="10-Jul-2012, PG"
             comment="actinium, fhi98PP : Trouiller-Martins-type, LDA Ceperley/Alder Perdew/Wang (1992"
             element="Ac"
             pseudo_type="SL"
             relativistic="no"
             is_ultrasoft="F"
             is_paw="F"
             is_coulomb="F"
             has_so="F"
             has_wfc="F"
             has_gipaw="F"
             paw_as_gipaw="F"
             core_correction="T"
             functional="SLA-PW"
             z_valence="3.000000000000000E+000"
             total_psenergy="0.000000000000000E+000"
             wfc_cutoff="0.000000000000000E+000"
             rho_cutoff="0.000000000000000E+000"
             l_max="3"
             l_max_rho="0"
             l_local="0"
             mesh_size="571"
             number_of_wfc="4"
             number_of_proj="3"/>
  <PP_MESH dx="2.439988682353512E-002" mesh="571" xmin="-5.075173815233821E+000" rmax="7.702463489977100E+001"
zmesh="8.900000000000000E+001">
    <PP_R type="real" size="571" columns="4">
 7.022471910112399E-005  7.195926966292100E-005  7.373666362359600E-005  7.555795921509800E-005 
 7.742424080771099E-005  7.933661955566200E-005  8.129623405868700E-005  8.330425103993600E-005 
 8.536186604062300E-005  8.747030413182599E-005  8.963082064388200E-005  9.184470191378600E-005 
 9.411326605105599E-005  9.643786372251700E-005  9.881987895646400E-005  1.012607299666900E-004 
 1.037618699968700E-004  1.063247881857900E-004  1.089510104539800E-004  1.116421004121900E-004 
 1.143996602923700E-004  1.172253319015900E-004  1.201207975995600E-004  1.230877813002700E-004 
 1.261280494983900E-004  1.292434123210000E-004  1.324357246053300E-004  1.357068870030800E-004 
 1.390588471120500E-004  1.424936006357200E-004  1.460131925714200E-004  1.496197184279400E-004 
 1.533153254731100E-004  1.571022140122900E-004  1.609826386984000E-004  1.649589098742500E-004 
 1.690333949481400E-004  1.732085198033600E-004  1.774867702425000E-004  1.818706934674900E-004 
 1.863628995961400E-004  1.909660632161700E-004  1.956829249776100E-004  2.005162932245500E-004 
 2.054690456672000E-004  2.105441310951800E-004  2.157445711332300E-004  2.210734620402200E-004 
 2.265339765526100E-004  2.321293657734600E-004  2.378629611080700E-004  2.437381762474400E-004 
 2.497585092007500E-004  2.559275443780100E-004  2.622489547241400E-004  2.687265039058300E-004 
 2.753640485523000E-004  2.821655405515500E-004  2.891350294031700E-004  2.962766646294300E-004 
 3.035946982457700E-004  3.110934872924500E-004  3.187774964285700E-004  3.266513005903500E-004 
 3.347195877149400E-004  3.429871615315000E-004  3.514589444213200E-004  3.601399803485300E-004 
 3.690354378631400E-004  3.781506131783600E-004  3.874909333238600E-004  3.970619593769600E-004 
 4.068693897735700E-004  4.169190637009800E-004  4.272169645744000E-004  4.377692235993800E-004 
 4.485821234222900E-004  4.596621018708200E-004  4.710157557870300E-004  4.826498449549700E-004 
 4.945712961253500E-004  5.067872071396500E-004  5.193048511560000E-004  5.321316809795500E-004 
 5.452753334997500E-004  5.587436342371900E-004  5.725446020028500E-004  5.866864536723200E-004 
 6.011776090780300E-004  6.160266960222500E-004  6.312425554140000E-004  6.468342465327300E-004 
 6.628110524220900E-004  6.791824854169100E-004  6.959582928067100E-004  7.131484626390400E-004 
 7.307632296662200E-004  7.488130814389800E-004  7.673087645505200E-004  7.862612910349200E-004 
 8.056819449234800E-004  8.255822889630901E-004  8.459741715004800E-004  8.668697335365400E-004 
 8.882814159548900E-004  9.102219669289800E-004  9.327044495121200E-004  9.557422494150700E-004 
 9.793490829756301E-004  1.003539005325100E-003  1.028326418756700E-003  1.053726081299900E-003 
 1.079753115508100E-003  1.106423017461100E-003  1.133751665992400E-003  1.161755332142400E-003 
 1.190450688846300E-003  1.219854820860800E-003  1.249985234936100E-003  1.280859870239000E-003 
 1.312497109033900E-003  1.344915787627000E-003  1.378135207581400E-003  1.412175147208700E-003 
 1.447055873344800E-003  1.482798153416400E-003  1.519423267805800E-003  1.556953022520600E-003 
 1.595409762176800E-003  1.634816383302600E-003  1.675196347970200E-003  1.716573697765000E-003 
 1.758973068099800E-003  1.802419702881900E-003  1.846939469543100E-003  1.892558874440800E-003 
 1.939305078639500E-003  1.987205914081900E-003  2.036289900159700E-003  2.086586260693600E-003 
 2.138124941332700E-003  2.190936627383700E-003  2.245052762080000E-003  2.300505565303400E-003 
 2.357328052766400E-003  2.415554055669700E-003  2.475218240844800E-003  2.536356131393700E-003 
 2.599004127839100E-003  2.663199529796700E-003  2.728980558182700E-003  2.796386377969800E-003 
 2.865457121505600E-003  2.936233912406800E-003  3.008758890043300E-003  3.083075234627400E-003 
 3.159227192922600E-003  3.237260104587800E-003  3.317220429171200E-003  3.399155773771700E-003 
 3.483114921383800E-003  3.569147859942000E-003  3.657305812082600E-003  3.747641265641000E-003 
 3.840208004902400E-003  3.935061142623500E-003  4.032257152846300E-003  4.131853904521600E-003 
 4.233910695963200E-003  4.338488290153500E-003  4.445648950920300E-003  4.555456480008100E-003 
 4.667976255064300E-003  4.783275268564300E-003  4.901422167697900E-003  5.022487295240000E-003 
 5.146542731432400E-003  5.273662336898800E-003  5.403921796620200E-003  5.537398664996700E-003 
 5.674172412022200E-003  5.814324470599100E-003  5.957938285022900E-003  6.105099360663000E-003 
 6.255895314871300E-003  6.410415929148700E-003  6.568753202598600E-003  6.731001406702800E-003 
 6.897257141448400E-003  7.067619392842200E-003  7.242189591845400E-003  7.421071674763900E-003 
 7.604372145130600E-003  7.792200137115300E-003  7.984667480502101E-003  8.181888767270501E-003 
 8.383981419822099E-003  8.591065760891701E-003  8.803265085185700E-003  9.020705732789800E-003 
 9.243517164389699E-003  9.471832038350100E-003  9.705786289697401E-003  9.945519211052901E-003 
 1.019117353556600E-002  1.044289552189400E-002  1.070083504128500E-002  1.096514566680500E-002 
 1.123598476477500E-002  1.151351358846500E-002  1.179789737410000E-002  1.208930543924000E-002 
 1.238791128359000E-002  1.269389269229400E-002  1.300743184179400E-002  1.332871540828600E-002 
 1.365793467887100E-002  1.399528566543900E-002  1.434096922137500E-002  1.469519116114300E-002 
 1.505816238282300E-002  1.543009899367900E-002  1.581122243882300E-002  1.620175963306200E-002 
 1.660194309599900E-002  1.701201109047000E-002  1.743220776440400E-002  1.786278329618500E-002 
 1.830399404360100E-002  1.875610269647800E-002  1.921937843308100E-002  1.969409708037800E-002 
 2.018054127826300E-002  2.067900064783600E-002  2.118977196383800E-002  2.171315933134500E-002 
 2.224947436682900E-002  2.279903638369000E-002  2.336217258236700E-002  2.393921824515100E-002 
 2.453051693580700E-002  2.513642070412100E-002  2.575729029551300E-002  2.639349536581200E-002 
 2.704541470134700E-002  2.771343644447100E-002  2.839795832464900E-002  2.909938789526800E-002 
 2.981814277628100E-002  3.055465090285500E-002  3.130935078015600E-002  3.208269174442600E-002 
 3.287513423051300E-002  3.368715004600700E-002  3.451922265214300E-002  3.537184745165100E-002 
 3.624553208370700E-002  3.714079672617400E-002  3.805817440531100E-002  3.899821131312200E-002 
 3.996146713255600E-002  4.094851537073000E-002  4.195994370038700E-002  4.299635430978700E-002 
 4.405836426123800E-002  4.514660585849100E-002  4.626172702319600E-002  4.740439168066900E-002 
 4.857528015518100E-002  4.977508957501400E-002  5.100453428751700E-002  5.226434628441900E-002 
 5.355527563764400E-002  5.487809094589400E-002  5.623357979225700E-002  5.762254921312600E-002 
 5.904582617869000E-002  6.050425808530400E-002  6.199871326001100E-002  6.353008147753300E-002 
 6.509927449002800E-002  6.670722656993200E-002  6.835489506620900E-002  7.004326097434400E-002 
 7.177332952041100E-002  7.354613075956500E-002  7.536272018932599E-002  7.722417937800299E-002 
 7.913161660863900E-002  8.108616753887300E-002  8.308899587708300E-002  8.514129407524700E-002 
 8.724428403890500E-002  8.939921785466599E-002  9.160737853567601E-002  9.387008078550800E-002 
 9.618867178091001E-002  9.856453197389800E-002  1.009990759136500E-001  1.034937530887200E-001 
 1.060500487900100E-001  1.086694849951300E-001  1.113536212745000E-001  1.141040557199900E-001 
 1.169224258962700E-001  1.198104098159100E-001  1.227697269383600E-001  1.258021391937400E-001 
 1.289094520318200E-001  1.320935154970100E-001  1.353562253297800E-001  1.386995240954300E-001 
 1.421254023405900E-001  1.456358997784000E-001  1.492331065029300E-001  1.529191642335500E-001 
 1.566962675901200E-001  1.605666653995900E-001  1.645326620349600E-001  1.685966187872300E-001 
 1.727609552712700E-001  1.770281508664700E-001  1.814007461928700E-001  1.858813446238400E-001 
 1.904726138360500E-001  1.951772873978000E-001  1.999981663965200E-001  2.049381211065200E-001 
 2.100000926978500E-001  2.151870949874800E-001  2.205022162336700E-001  2.259486209746500E-001 
 2.315295519127200E-001  2.372483318449600E-001  2.431083656415300E-001  2.491131422728800E-001 
 2.552662368870200E-001  2.615713129381300E-001  2.680321243677000E-001  2.746525178395800E-001 
 2.814364350302200E-001  2.883879149754700E-001  2.955110964753600E-001  3.028102205583000E-001 
 3.102896330060900E-001  3.179537869413400E-001  3.258072454788000E-001  3.338546844421200E-001 
 3.421008951478400E-001  3.505507872579900E-001  3.592093917032700E-001  3.680818636783400E-001 
 3.771734857111900E-001  3.864896708082600E-001  3.960359656772200E-001  4.058180540294500E-001 
 4.158417599639800E-001  4.261130514350900E-001  4.366380438055300E-001  4.474230034875300E-001 
 4.584743516736700E-001  4.697986681600100E-001  4.814026952635600E-001  4.932933418365700E-001 
 5.054776873799400E-001  5.179629862582200E-001  5.307566720187999E-001  5.438663618176600E-001 
 5.572998609545600E-001  5.710651675201400E-001  5.851704771578899E-001  5.996241879436900E-001 
 6.144349053858900E-001  6.296114475489299E-001  6.451628503033801E-001  6.610983727058800E-001 
 6.774275025117100E-001  6.941599618237499E-001  7.113057128808000E-001  7.288749639889500E-001 
 7.468781755994800E-001  7.653260665367900E-001  7.842296203802500E-001  8.036000920036400E-001 
 8.234490142761300E-001  8.437882049287500E-001  8.646297735904900E-001  8.859861289981800E-001 
 9.078699863844300E-001  9.302943750481300E-001  9.532726461118100E-001  9.768184804707800E-001 
 1.000945896938400E+000  1.025669260592800E+000  1.051003291329400E+000  1.076963072625300E+000 
 1.103564060519100E+000  1.130822092813900E+000  1.158753398506400E+000  1.187374607449500E+000 
 1.216702760253500E+000  1.246755318431800E+000  1.277550174797100E+000  1.309105664114600E+000 
 1.341440574018200E+000  1.374574156196400E+000  1.408526137854500E+000  1.443316733459500E+000 
 1.478966656775900E+000  1.515497133198300E+000  1.552929912388300E+000  1.591287281224300E+000 
 1.630592077070500E+000  1.670867701374200E+000  1.712138133598100E+000  1.754427945498000E+000 
 1.797762315751800E+000  1.842167044950900E+000  1.887668570961200E+000  1.934293984663900E+000 
 1.982071046085100E+000  2.031028200923400E+000  2.081194597486200E+000  2.132600104044100E+000 
 2.185275326614000E+000  2.239251627181400E+000  2.294561142372700E+000  2.351236802589400E+000 
 2.409312351613300E+000  2.468822366698200E+000  2.529802279155600E+000  2.592288395450700E+000 
 2.656317918818400E+000  2.721928971413200E+000  2.789160617007100E+000  2.858052884247200E+000 
 2.928646790488100E+000  3.000984366213100E+000  3.075108680058600E+000  3.151063864456000E+000 
 3.228895141908100E+000  3.308648851913200E+000  3.390372478555500E+000  3.474114678775800E+000 
 3.559925311341600E+000  3.647855466531700E+000  3.737957496555000E+000  3.830285046720000E+000 
 3.924893087373900E+000  4.021837946632100E+000  4.121177343913900E+000  4.222970424308600E+000 
 4.327277793789000E+000  4.434161555295600E+000  4.543685345711400E+000  4.655914373750400E+000 
 4.770915458782100E+000  4.888757070614000E+000  5.009509370258200E+000  5.133244251703500E+000 
 5.260035384720600E+000  5.389958258723200E+000  5.523090227713700E+000  5.659510556338200E+000 
 5.799300467079800E+000  5.942543188616600E+000  6.089324005375500E+000  6.239730308308200E+000 
 6.393851646923400E+000  6.551779782602500E+000  6.713608743232700E+000  6.879434879190600E+000 
 7.049356920706600E+000  7.223476036648000E+000  7.401895894753200E+000  7.584722723353600E+000 
 7.772065374620500E+000  7.964035389373600E+000  8.160747063491099E+000  8.362317515959401E+000 
 8.568866758603599E+000  8.780517767541101E+000  8.997396556399300E+000  9.219632251342400E+000 
 9.447357167950599E+000  9.680706889998900E+000  9.919820350181899E+000  1.016483991283100E+001 
 1.041591145867800E+001  1.067318447170800E+001  1.093681212815900E+001  1.120695138772400E+001 
 1.148376308700100E+001  1.176741203525000E+001  1.205806711252100E+001  1.235590137020000E+001 
 1.266109213404400E+001  1.297382110975500E+001  1.329427449116600E+001  1.362264307109800E+001 
 1.395912235495400E+001  1.430391267712100E+001  1.465721932024600E+001  1.501925263745600E+001 
 1.539022817760100E+001  1.577036681358800E+001  1.615989487388400E+001  1.655904427726900E+001 
 1.696805267091700E+001  1.738716357188900E+001  1.781662651211400E+001  1.825669718696400E+001 
 1.870763760748200E+001  1.916971625638600E+001  1.964320824791900E+001  2.012839549164300E+001 
 2.062556686028600E+001  2.113501836173500E+001  2.165705331527000E+001  2.219198253215700E+001 
 2.274012450070200E+001  2.330180557586900E+001  2.387736017359300E+001  2.446713096988100E+001 
 2.507146910483700E+001  2.569073439172600E+001  2.632529553120200E+001  2.697553033082300E+001 
 2.764182592999400E+001  2.832457903046500E+001  2.902419613251700E+001  2.974109377699000E+001 
 3.047569879328200E+001  3.122844855347600E+001  3.199979123274700E+001  3.279018607619600E+001 
 3.360010367227800E+001  3.443002623298300E+001  3.528044788093800E+001  3.615187494359700E+001 
 3.704482625470400E+001  3.795983346319500E+001  3.889744134973600E+001  3.985820815107400E+001 
 4.084270589240600E+001  4.185152072794800E+001  4.288525328992900E+001  4.394451904619000E+001 
 4.502994866663100E+001  4.614218839869600E+001  4.728190045214400E+001  4.844976339331200E+001 
 4.964647254912700E+001  5.087274042109000E+001  5.212929710949100E+001  5.341689074809600E+001 
 5.473628794957400E+001  5.608827426192800E+001  5.747365463619800E+001  5.889325390571200E+001 
 6.034791727718300E+001  6.183851083392900E+001  6.336592205152800E+001  6.493106032620000E+001 
 6.653485751625701E+001  6.817826849690900E+001  6.986227172878300E+001  7.158786984048400E+001 
 7.335609022554300E+001  7.516798565411401E+001  7.702463489977100E+001
    </PP_R>
    <PP_RAB type="real" size="571" columns="4">
 1.713475198281971E-006  1.755798035679517E-006  1.799166247160822E-006  1.843605653465674E-006 
 1.889142713106278E-006  1.935804538120016E-006  1.983618910211584E-006  2.032614297293796E-006 
 2.082819870436967E-006  2.134265521236751E-006  2.186981879611296E-006  2.241000332037698E-006 
 2.296353040239016E-006  2.353072960332918E-006  2.411193862453162E-006  2.470750350855787E-006 
 2.531777884521992E-006  2.594312798269620E-006  2.658392324386904E-006  2.724054614799180E-006 
 2.791338763784693E-006  2.860284831250137E-006  2.930933866582033E-006  3.003327933086631E-006 
 3.077510133033952E-006  3.153524633319885E-006  3.231416691762918E-006  3.311232684049422E-006 
 3.393020131345294E-006  3.476827728589580E-006  3.562705373485687E-006  3.650704196210928E-006 
 3.740876589857335E-006  3.833276241626669E-006  3.927958164795005E-006  4.024978731465430E-006 
 4.124395706132529E-006  4.226268280074025E-006  4.330657106591781E-006  4.437624337124604E-006 
 4.547233658251655E-006  4.659550329610601E-006  4.774641222751998E-006  4.892574860953803E-006 
 5.013421460019449E-006  5.137252970081934E-006  5.264143118442935E-006  5.394167453468456E-006 
 5.527403389569043E-006  5.663930253291411E-006  5.803829330547845E-006  5.947183915012392E-006 
 6.094079357713156E-006  6.244603117848705E-006  6.398844814859402E-006  6.556896281786520E-006 
 6.718851619946550E-006  6.884807254959430E-006  7.054861994156848E-006  7.229117085412563E-006 
 7.407676277422084E-006  7.590645881474641E-006  7.778134834746979E-006  7.970254765165090E-006 
 8.167120057864873E-006  8.368847923294158E-006  8.575558466999328E-006  8.787374761134295E-006 
 9.004422917734343E-006  9.226832163802393E-006  9.454734918248177E-006  9.688266870728925E-006 
 9.927567062435906E-006  1.017277796887814E-005  1.042404558470957E-005  1.068151951065171E-005 
 1.094535304256494E-005  1.121570326271628E-005  1.149273113330539E-005  1.177660159229804E-005 
 1.206748365162761E-005  1.236555049782291E-005  1.267097959511915E-005  1.298395279111852E-005 
 1.330465642505927E-005  1.363328143875814E-005  1.397002349029550E-005  1.431508307050579E-005 
 1.466866562234737E-005  1.503098166321917E-005  1.540224691030070E-005  1.578268240898522E-005 
 1.617251466448720E-005  1.657197577669990E-005  1.698130357838444E-005  1.740074177677064E-005 
 1.783054009865677E-005  1.827095443909370E-005  1.872224701373924E-005  1.918468651497866E-005 
 1.965854827189857E-005  2.014411441421447E-005  2.064167404024560E-005  2.115152338903963E-005 
 2.167396601674884E-005  2.220931297736264E-005  2.275788300790336E-005  2.332000271819858E-005 
 2.389600678533828E-005  2.448623815293545E-005  2.509104823531467E-005  2.571079712672473E-005 
 2.634585381575709E-005  2.699659640500506E-005  2.766341233620895E-005  2.834669862091301E-005 
 2.904686207684914E-005  2.976431957014723E-005  3.049949826353080E-005  3.125283587063948E-005 
 3.202478091664420E-005  3.281579300528439E-005  3.362634309251524E-005  3.445691376690133E-005 
 3.530799953694489E-005  3.618010712550703E-005  3.707375577150742E-005  3.798947753906357E-005 
 3.892781763427700E-005  3.988933472984445E-005  4.087460129767224E-005  4.188420394972318E-005 
 4.291874378728145E-005  4.397883675882816E-005  4.506511402677164E-005  4.617822234323253E-005 
 4.731882443511068E-005  4.848759939865802E-005  4.968524310380431E-005  5.091246860846719E-005 
 5.217000658309555E-005  5.345860574570002E-005  5.477903330761692E-005  5.613207543031564E-005 
 5.751853769344459E-005  5.893924557447194E-005  6.039504494016282E-005  6.188680255018566E-005 
 6.341540657317464E-005  6.498176711553144E-005  6.658681676328557E-005  6.823151113733843E-005 
 6.991682946242936E-005  7.164377515015166E-005  7.341337639636168E-005  7.522668679335255E-005 
 7.708478595714599E-005  7.898878017028779E-005  8.093980304049588E-005  8.293901617559544E-005 
 8.498760987513114E-005  8.708680383904738E-005  8.923784789387265E-005  9.144202273685032E-005 
 9.370064069845217E-005  9.601504652370420E-005  9.838661817283968E-005  1.008167676417087E-004 
 1.033069418024569E-004  1.058586232649778E-004  1.084733312596230E-004  1.111526225417373E-004 
 1.138980923185182E-004  1.167113751987835E-004  1.195941461661949E-004  1.225481215764990E-004 
 1.255750601794379E-004  1.286767641658705E-004  1.318550802407675E-004  1.351119007227140E-004 
 1.384491646705670E-004  1.418688590379288E-004  1.453730198561657E-004  1.489637334466138E-004 
 1.526431376627433E-004  1.564134231630150E-004  1.602768347151397E-004  1.642356725326040E-004 
 1.682922936441603E-004  1.724491132971717E-004  1.767086063956118E-004  1.810733089735814E-004 
 1.855458197052296E-004  1.901288014519482E-004  1.948249828478126E-004  1.996371599241535E-004 
 2.045681977742805E-004  2.096210322593051E-004  2.147986717561094E-004  2.201041989484856E-004 
 2.255407726625129E-004  2.311116297472764E-004  2.368200870020354E-004  2.426695431509851E-004 
 2.486634808668167E-004  2.548054688442153E-004  2.610991639246728E-004  2.675483132736185E-004 
 2.741567566114749E-004  2.809284284997797E-004  2.878673606837222E-004  2.949776844926035E-004 
 3.022636332995897E-004  3.097295450420731E-004  3.173798648046206E-004  3.252191474652871E-004 
 3.332520604076879E-004  3.414833862997551E-004  3.499180259413506E-004  3.585610011821028E-004 
 3.674174579112952E-004  3.764926691217108E-004  3.857920380490201E-004  3.953211013888327E-004 
 4.050855325931459E-004  4.150911452481923E-004  4.253438965358078E-004  4.358498907802477E-004 
 4.466153830825253E-004  4.576467830446651E-004  4.689506585858682E-004  4.805337398529367E-004 
 4.924029232272960E-004  5.045652754310079E-004  5.170280377341647E-004  5.297986302662035E-004 
 5.428846564337733E-004  5.562939074476955E-004  5.700343669616501E-004  5.841142158255914E-004 
 5.985418369565023E-004  6.133258203293175E-004  6.284749680914568E-004  6.439982998033115E-004 
 6.599050578084398E-004  6.762047127363259E-004  6.929069691409026E-004  7.100217712786871E-004 
 7.275593090292677E-004  7.455300239622871E-004  7.639446155541676E-004  7.828140475583590E-004 
 8.021495545330425E-004  8.219626485300168E-004  8.422651259486991E-004  8.630690745596336E-004 
 8.843868807012618E-004  9.062312366545694E-004  9.286151481999494E-004  9.515519423604837E-004 
 9.750552753367850E-004  9.991391406376003E-004  1.023817877411348E-003  1.049106178983419E-003 
 1.075019101604292E-003  1.101572073413928E-003  1.128780903627259E-003  1.156661791946853E-003 
 1.185231338207928E-003  1.214506552261665E-003  1.244504864102531E-003  1.275244134245872E-003 
 1.306742664361741E-003  1.339019208171481E-003  1.372092982613302E-003  1.405983679283857E-003 
 1.440711476162163E-003  1.476297049623377E-003  1.512761586749075E-003  1.550126797941770E-003 
 1.588414929850930E-003  1.627648778618256E-003  1.667851703450119E-003  1.709047640525328E-003 
 1.751261117246321E-003  1.794517266842301E-003  1.838841843333300E-003  1.884261236863648E-003 
 1.930802489414164E-003  1.978493310902709E-003  2.027362095682001E-003  2.077437939445348E-003 
 2.128750656549634E-003  2.181330797766411E-003  2.235209668471235E-003  2.290419347282494E-003 
 2.346992705160371E-003  2.404963424977820E-003  2.464366021574692E-003  2.525235862307657E-003 
 2.587609188106622E-003  2.651523135053020E-003  2.717015756488593E-003  2.784126045674101E-003 
 2.852893959002160E-003  2.923360439789565E-003  2.995567442652295E-003  3.069557958485868E-003 
 3.145376040060338E-003  3.223066828249927E-003  3.302676578907550E-003  3.384252690406674E-003 
 3.467843731859790E-003  3.553499472036664E-003  3.641270908996055E-003  3.731210300448200E-003 
 3.823371194869302E-003  3.917808463382429E-003  4.014578332427978E-003  4.113738417239107E-003 
 4.215347756144802E-003  4.319466845721569E-003  4.426157676810848E-003  4.535483771428225E-003 
 4.647510220582529E-003  4.762303723030908E-003  4.879932624989633E-003  5.000466960827022E-003 
 5.123978494759424E-003  5.250540763579814E-003  5.380229120440217E-003  5.513120779715294E-003 
 5.649294862974168E-003  5.788832446089527E-003  5.931816607507926E-003  6.078332477713475E-003 
 6.228467289912994E-003  6.382310431973861E-003  6.539953499643571E-003  6.701490351084713E-003 
 6.867017162756563E-003  7.036632486676737E-003  7.210437309097552E-003  7.388535110632227E-003 
 7.571031927864845E-003  7.758036416483096E-003  7.949659915970445E-003  8.146016515894760E-003 
 8.347223123837351E-003  8.553399534996094E-003  8.764668503510683E-003  8.981155815547379E-003 
 9.202990364191277E-003  9.430304226186891E-003  9.663232740573608E-003  9.901914589265840E-003 
 1.014649187962077E-002  1.039711022904739E-002  1.065391885170470E-002  1.091707064734189E-002 
 1.118672229233119E-002  1.146303433295178E-002  1.174617128097563E-002  1.203630171161573E-002 
 1.233359836389280E-002  1.263823824348085E-002  1.295040272809487E-002  1.327027767547871E-002 
 1.359805353406312E-002  1.393392545635454E-002  1.427809341512656E-002  1.463076232248019E-002 
 1.499214215184523E-002  1.536244806299601E-002  1.574190053015180E-002  1.613072547324671E-002 
 1.652915439243578E-002  1.693742450592896E-002  1.735577889122549E-002  1.778446662983862E-002 
 1.822374295559570E-002  1.867386940659899E-002  1.913511398094201E-002  1.960775129627123E-002 
 2.009206275328913E-002  2.058833670329536E-002  2.109686861986675E-002  2.161796127477758E-002 
 2.215192491826446E-002  2.269907746374571E-002  2.325974467710001E-002  2.383426037062459E-002 
 2.442296660177881E-002  2.502621387684327E-002  2.564436135960027E-002  2.627777708518396E-002 
 2.692683817918690E-002  2.759193108221229E-002  2.827345177994285E-002  2.897180603890724E-002 
 2.968740964806819E-002  3.042068866637641E-002  3.117207967643675E-002  3.194203004444502E-002 
 3.273099818654207E-002  3.353945384174845E-002  3.436787835164083E-002  3.521676494692621E-002 
 3.608661904111407E-002  3.697795853143045E-002  3.789131410715683E-002  3.882722956560383E-002 
 3.978626213587326E-002  4.076898281063076E-002  4.177597668605230E-002  4.280784331019845E-002 
 4.386519703996033E-002  4.494866740684809E-002  4.605889949179755E-002  4.719655430924394E-002 
 4.836230920068231E-002  4.955685823793912E-002  5.078091263641601E-002  5.203520117853527E-002 
 5.332047064764535E-002  5.463748627264303E-002  5.598703218357534E-002  5.736991187851195E-002 
 5.878694870190978E-002  6.023898633484821E-002  6.172688929731784E-002  6.325154346296054E-002 
 6.481385658649731E-002  6.641475884418344E-002  6.805520338763463E-002  6.973616691130981E-002 
 7.145865023401901E-002  7.322367889479792E-002  7.503230376350031E-002  7.688560166645761E-002 
 7.878467602762002E-002  8.073065752550149E-002  8.272470476638245E-002  8.476800497411159E-002 
 8.686177469697307E-002  8.900726053198739E-002  9.120573986712667E-002  9.345852164184693E-002 
 9.576694712639851E-002  9.813239072042214E-002  1.005562607712163E-001  1.030400004122659E-001 
 1.055850884224484E-001  1.081930401064831E-001  1.108654081971132E-001  1.136037837795802E-001 
 1.164097972389374E-001  1.192851192307387E-001  1.222314616757388E-001  1.252505787791276E-001 
 1.283442680749727E-001  1.315143714964245E-001  1.347627764723871E-001  1.380914170512544E-001 
 1.415022750524215E-001  1.449973812462146E-001  1.485788165629978E-001  1.522487133321020E-001 
 1.560092565514046E-001  1.598626851882265E-001  1.638112935123738E-001  1.678574324621306E-001 
 1.720035110439451E-001  1.762519977667292E-001  1.806054221115673E-001  1.850663760377229E-001 
 1.896375155258563E-001  1.943215621593443E-001  1.991213047446794E-001  2.040396009718747E-001 
 2.090793791158801E-001  2.142436397800421E-001  2.195354576826075E-001  2.249579834873689E-001 
 2.305144456795079E-001  2.362081524877898E-001  2.420424938542389E-001  2.480209434524290E-001 
 2.541470607557058E-001  2.604244931563877E-001  2.668569781373459E-001  2.734483454973255E-001 
 2.802025196311147E-001  2.871235218660051E-001  2.942154728561033E-001  3.014825950356425E-001 
 3.089292151330244E-001  3.165597667468129E-001  3.243787929854604E-001  3.323909491722061E-001 
 3.406010056167567E-001  3.490138504554817E-001  3.576344925617348E-001  3.664680645280078E-001 
 3.755198257218456E-001  3.847951654171814E-001  3.942996060029950E-001  4.040388062712705E-001 
 4.140185647861576E-001  4.242448233363843E-001  4.347236704727769E-001  4.454613451334736E-001 
 4.564642403582701E-001  4.677389070950997E-001  4.792920581003552E-001  4.911305719354438E-001 
 5.032614970622350E-001  5.156920560396706E-001  5.284296498238541E-001  5.414818621744991E-001 
 5.548564641702268E-001  5.685614188352233E-001  5.826048858804541E-001  5.969952265617076E-001 
 6.117410086577802E-001  6.268510115716158E-001  6.423342315574436E-001  6.581998870769201E-001 
 6.744574242877120E-001  6.911165226676221E-001  7.081871007775006E-001  7.256793221667006E-001 
 7.436036014242267E-001  7.619706103794035E-001  7.807912844557783E-001  8.000768291818396E-001 
 8.198387268626300E-001  8.400887434161306E-001  8.608389353785166E-001  8.821016570823620E-001 
 9.038895680123000E-001  9.262156403421992E-001  9.490931666586536E-001  9.725357678751108E-001 
 9.965574013416375E-001  1.021172369154765E+000  1.046395326672905E+000  1.072241291241720E+000 
 1.098725651135393E+000  1.125864174718418E+000  1.153673019833968E+000  1.182168743423868E+000 
 1.211368311386442E+000  1.241289108677677E+000  1.271948949662017E+000  1.303366088718683E+000 
 1.335559231110035E+000  1.368547544118441E+000  1.402350668458176E+000  1.436988729969091E+000 
 1.472482351599325E+000  1.508852665683818E+000  1.546121326526232E+000  1.584310523291411E+000 
 1.623442993216706E+000  1.663542035149169E+000  1.704631523417363E+000  1.746735922045773E+000 
 1.789880299320280E+000  1.834090342713493E+000  1.879392374178526E+000
    </PP_RAB>
  </PP_MESH>