<UPF version="2.0.1">
  <PP_INFO>
    Generated using FHI98PP, converted with fhi2upf.x v.5.0.1
    Author: Abinit web site
    Generation date: 10-Jul-2012, PG
    Pseudopotential type: SL
    Element: Ag
    Functional: SLA-PW

    Suggested minimum cutoff for wavefunctions:   0. Ry
    Suggested minimum cutoff for charge density:   0. Ry
    The Pseudo was generated with a Non-Relativistic Calculation
    L component and cutoff radius for Local Potential:  1   0.0000

    Valence configuration: 
    nl pn  l   occ       Rcut    Rcut US       E pseu
    5s  5  0  2.00      0.000      0.000     0.000000
    5p  5  1  0.00      0.000      0.000     0.000000
    4d  4  2  9.00      0.000      0.000     0.000000
    4f  4  3  0.00      0.000      0.000     0.000000

    Generation configuration: not available.
    Comment:
    silver, fhi98PP : Trouiller-Martins-type, LDA Ceperley/Alder Perdew/Wang (1992),
  </PP_INFO>
  <!--                               -->
  <!-- END OF HUMAN READABLE SECTION -->
  <!--                               -->
  <PP_HEADER generated="Generated using FHI98PP, converted with fhi2upf.x v.5.0.1"
             author="Abinit web site"
             date="10-Jul-2012, PG"
             comment="silver, fhi98PP : Trouiller-Martins-type, LDA Ceperley/Alder Perdew/Wang (1992),"
             element="Ag"
             pseudo_type="SL"
             relativistic="no"
             is_ultrasoft="F"
             is_paw="F"
             is_coulomb="F"
             has_so="F"
             has_wfc="F"
             has_gipaw="F"
             paw_as_gipaw="F"
             core_correction="F"
             functional="SLA-PW"
             z_valence="1.100000000000000E+001"
             total_psenergy="0.000000000000000E+000"
             wfc_cutoff="0.000000000000000E+000"
             rho_cutoff="0.000000000000000E+000"
             l_max="3"
             l_max_rho="0"
             l_local="1"
             mesh_size="545"
             number_of_wfc="4"
             number_of_proj="3"/>
  <PP_MESH dx="2.439988682353512E-002" mesh="545" xmin="-5.075173815233792E+000" rmax="7.734044307285400E+001"
zmesh="4.700000000000000E+001">
    <PP_R type="real" size="545" columns="4">
 1.329787234042600E-004  1.362632978723400E-004  1.396290013297900E-004  1.430778376626300E-004 
 1.466118602529000E-004  1.502331732011500E-004  1.539439325792100E-004  1.577463477139200E-004 
 1.616426825024600E-004  1.656352567602700E-004  1.697264476022400E-004  1.739186908580200E-004 
 1.782144825222100E-004  1.826163802405100E-004  1.871270048324500E-004  1.917490418518100E-004 
 1.964852431855500E-004  2.013384286922400E-004  2.063114878809400E-004  2.114073816315900E-004 
 2.166291439578900E-004  2.219798838136500E-004  2.274627869438500E-004  2.330811177813700E-004 
 2.388382213905600E-004  2.447375254589100E-004  2.507825423377500E-004  2.569768711334900E-004 
 2.633241998504900E-004  2.698283075867900E-004  2.764930667841900E-004  2.833224455337600E-004 
 2.903205099384400E-004  2.974914265339200E-004  3.048394647693100E-004  3.123689995491100E-004 
 3.200845138379700E-004  3.279906013297700E-004  3.360919691826200E-004  3.443934408214300E-004 
 3.528999588097200E-004  3.616165877923200E-004  3.705485175107900E-004  3.797010658933000E-004 
 3.890796822208700E-004  3.986899503717200E-004  4.085375921459000E-004  4.186284706719100E-004 
 4.289685938975000E-004  4.395641181667700E-004  4.504213518854900E-004  4.615467592770600E-004 
 4.729469642312100E-004  4.846287542477200E-004  4.965990844776300E-004  5.088650818642300E-004 
 5.214340493862800E-004  5.343134704061200E-004  5.475110131251500E-004  5.610345351493400E-004 
 5.748920881675301E-004  5.890919227452700E-004  6.036424932370800E-004  6.185524628200300E-004 
 6.338307086516900E-004  6.494863271553801E-004  6.655286394361200E-004  6.819671968301900E-004 
 6.988117865919000E-004  7.160724377207200E-004  7.337594269324200E-004  7.518832847776500E-004 
 7.704548019116600E-004  7.894850355188800E-004  8.089853158962000E-004  8.289672531988300E-004 
 8.494427443528399E-004  8.704239801383600E-004  8.919234524477700E-004  9.139539617232300E-004 
 9.365286245778000E-004  9.596608816048700E-004  9.833645053805100E-004  1.007653608663400E-003 
 1.032542652797400E-003  1.058046456321500E-003  1.084180203792600E-003  1.110959454826300E-003 
 1.138400153360500E-003  1.166518637148500E-003  1.195331647486100E-003  1.224856339179000E-003 
 1.255110290756700E-003  1.286111514938400E-003  1.317878469357400E-003  1.350430067550500E-003 
 1.383785690219000E-003  1.417965196767400E-003  1.452988937127600E-003  1.488877763874600E-003 
 1.525653044642300E-003  1.563336674845000E-003  1.601951090713700E-003  1.641519282654300E-003 
 1.682064808935900E-003  1.723611809716600E-003  1.766185021416600E-003  1.809809791445600E-003 
 1.854512093294300E-003  1.900318541998600E-003  1.947256409986000E-003  1.995353643312700E-003 
 2.044638878302500E-003  2.095141458596600E-003  2.146891452623900E-003  2.199919671503700E-003 
 2.254257687389800E-003  2.309937852268400E-003  2.366993317219400E-003  2.425458052154700E-003 
 2.485366866042900E-003  2.546755427634200E-003  2.609660286696800E-003  2.674118895778200E-003 
 2.740169632503900E-003  2.807851822426700E-003  2.877205762440700E-003  2.948272744773000E-003 
 3.021095081568900E-003  3.095716130083600E-003  3.172180318496700E-003  3.250533172363500E-003 
 3.330821341720900E-003  3.413092628861400E-003  3.497396016794300E-003  3.583781698409100E-003 
 3.672301106359800E-003  3.763006943686900E-003  3.855953215196000E-003  3.951195259611300E-003 
 4.048789782523700E-003  4.148794890152100E-003  4.251270123938800E-003  4.356276496000100E-003 
 4.463876525451300E-003  4.574134275629900E-003  4.687115392238000E-003  4.802887142426300E-003 
 4.921518454844200E-003  5.043079960678900E-003  5.167644035707600E-003  5.295284843389600E-003 
 5.426078379021300E-003  5.560102514983200E-003  5.697437047103200E-003  5.838163742166700E-003 
 5.982366386598200E-003  6.130130836347200E-003  6.281545068005000E-003  6.436699231184700E-003 
 6.595685702194900E-003  6.758599139039200E-003  6.925536537773400E-003  7.096597290256400E-003 
 7.271883243325800E-003  7.451498759435900E-003  7.635550778794000E-003  7.824148883030201E-003 
 8.017405360441000E-003  8.215435272843900E-003  8.418356524083201E-003  8.626289930227999E-003 
 8.839359291504600E-003  9.057691466004800E-003  9.281416445215100E-003  9.510667431411900E-003 
 9.745580916967801E-003  9.986296765616900E-003  1.023295829572800E-002  1.048571236563200E-002 
 1.074470946106300E-002  1.101010378475200E-002  1.128205334823500E-002  1.156072006593600E-002 
 1.184626985156500E-002  1.213887271689900E-002  1.243870287300600E-002  1.274593883396900E-002 
 1.306076352316800E-002  1.338336438219000E-002  1.371393348243100E-002  1.405266763944700E-002 
 1.439976853014100E-002  1.475544281283500E-002  1.511990225031200E-002  1.549336383589500E-002 
 1.587604992264200E-002  1.626818835573100E-002  1.667001260811800E-002  1.708176191953800E-002 
 1.750368143895100E-002  1.793602237049300E-002  1.837904212304400E-002  1.883300446348300E-002 
 1.929817967373100E-002  1.977484471167200E-002  2.026328337605100E-002  2.076378647543900E-002 
 2.127665200138200E-002  2.180218530581700E-002  2.234069928287000E-002  2.289251455515700E-002 
 2.345795966466900E-002  2.403737126838700E-002  2.463109433871600E-002  2.523948236888200E-002 
 2.586289758339400E-002  2.650171115370300E-002  2.715630341920000E-002  2.782706411365400E-002 
 2.851439259726100E-002  2.921869809441400E-002  2.994039993734600E-002  3.067992781579800E-002 
 3.143772203284800E-002  3.221423376706000E-002  3.300992534110600E-002  3.382527049703200E-002 
 3.466075467830800E-002  3.551687531886200E-002  3.639414213923800E-002  3.729307745007700E-002 
 3.821421646309400E-002  3.915810760973300E-002  4.012531286769300E-002  4.111640809552500E-002 
 4.213198337548500E-002  4.317264336485900E-002  4.423900765597100E-002  4.533171114507400E-002 
 4.645140441035700E-002  4.759875409929300E-002  4.877444332554500E-002  4.997917207568600E-002 
 5.121365762595600E-002  5.247863496931700E-002  5.377485725305900E-002  5.510309622721000E-002 
 5.646414270402200E-002  5.785880702881100E-002  5.928791956242300E-002  6.075233117561400E-002 
 6.225291375565200E-002  6.379056072541700E-002  6.536618757533499E-002  6.698073240844500E-002 
 6.863515649893399E-002  7.033044486445800E-002  7.206760685261000E-002  7.384767674186900E-002 
 7.567171435739301E-002  7.754080570202100E-002  7.945606360286100E-002  8.141862837385100E-002 
 8.342966849468600E-002  8.549038130650401E-002  8.760199372477501E-002  8.976576296977699E-002 
 9.198297731513000E-002  9.425495685481400E-002  9.658305428912800E-002  9.896865573006899E-002 
 1.014131815266000E-001  1.039180871103100E-001  1.064848638619300E-001  1.091150399993200E-001 
 1.118101814873100E-001  1.145718929700400E-001  1.174018187264000E-001  1.203016436489500E-001 
 1.232730942470700E-001  1.263179396749800E-001  1.294379927849500E-001  1.326351112067400E-001 
 1.359111984535400E-001  1.392682050553500E-001  1.427081297202100E-001  1.462330205243000E-001 
 1.498449761312500E-001  1.535461470416900E-001  1.573387368736200E-001  1.612250036744000E-001 
 1.652072612651600E-001  1.692878806184100E-001  1.734692912696900E-001  1.777539827640500E-001 
 1.821445061383200E-001  1.866434754399300E-001  1.912535692833000E-001  1.959775324446000E-001 
 2.008181774959800E-001  2.057783864801300E-001  2.108611126261900E-001  2.160693821080600E-001 
 2.214062958461300E-001  2.268750313535300E-001  2.324788446279600E-001  2.382210720902700E-001 
 2.441051325709000E-001  2.501345293454000E-001  2.563128522202300E-001  2.626437796700700E-001 
 2.691310810279200E-001  2.757786187293100E-001  2.825903506119200E-001  2.895703322720400E-001 
 2.967227194791600E-001  3.040517706502900E-001  3.115618493853600E-001  3.192574270651700E-001 
 3.271430855136800E-001  3.352235197258700E-001  3.435035406631000E-001  3.519880781174800E-001 
 3.606821836469800E-001  3.695910335830600E-001  3.787199321125600E-001  3.880743144357400E-001 
 3.976597500023100E-001  4.074819458273600E-001  4.175467498893000E-001  4.278601546115600E-001 
 4.384283004304700E-001  4.492574794511000E-001  4.603541391935400E-001  4.717248864316200E-001 
 4.833764911264900E-001  4.953158904573100E-001  5.075501929516100E-001  5.200866827175100E-001 
 5.329328237806300E-001  5.460962645280100E-001  5.595848422618600E-001  5.734065878657200E-001 
 5.875697305860100E-001  6.020827029314800E-001  6.169541456938900E-001  6.321929130925300E-001 
 6.478080780459100E-001  6.638089375736500E-001  6.802050183317200E-001  6.970060822845100E-001 
 7.142221325169400E-001  7.318634191901100E-001  7.499404456441000E-001  7.684639746515100E-001 
 7.874450348254000E-001  8.068949271855900E-001  8.268252318870700E-001  8.472478151146901E-001 
 8.681748361480200E-001  8.896187546008700E-001  9.115923378395200E-001  9.341086685841500E-001 
 9.571811526981800E-001  9.808235271698200E-001  1.005049868290900E+000  1.029874600037700E+000 
 1.055312502658600E+000  1.081378721474300E+000  1.108088775894700E+000  1.135458568659300E+000 
 1.163504395305200E+000  1.192242953869200E+000  1.221691354829800E+000  1.251867131294100E+000 
 1.282788249437100E+000  1.314473119198200E+000  1.346940605242400E+000  1.380210038191900E+000 
 1.414301226135200E+000  1.449234466420700E+000  1.485030557741300E+000  1.521710812517500E+000 
 1.559297069586700E+000  1.597811707205500E+000  1.637277656373500E+000  1.677718414485900E+000 
 1.719158059323700E+000  1.761621263389000E+000  1.805133308594700E+000  1.849720101317000E+000 
 1.895408187819500E+000  1.942224770058700E+000  1.990197721879100E+000  2.039355605609500E+000 
 2.089727689068100E+000  2.141343962988100E+000  2.194235158873900E+000  2.248432767298100E+000 
 2.303969056650300E+000  2.360877092349600E+000  2.419190756530600E+000  2.478944768216900E+000 
 2.540174703991900E+000  2.602917019180500E+000  2.667209069554200E+000  2.733089133572200E+000 
 2.800596435171500E+000  2.869771167120200E+000  2.940654514948100E+000  3.013288681467300E+000 
 3.087716911899500E+000  3.163983519623500E+000  3.242133912558100E+000  3.322214620198300E+000 
 3.404273321317200E+000  3.488358872353800E+000  3.574521336500900E+000  3.662812013512500E+000 
 3.753283470246200E+000  3.845989571961300E+000  3.940985514388800E+000  4.038327856594200E+000 
 4.138074554652000E+000  4.240284996151900E+000  4.345020035556900E+000  4.452342030435200E+000 
 4.562314878586900E+000  4.675004056088000E+000  4.790476656273400E+000  4.908801429683300E+000 
 5.030048824996500E+000  5.154291030973900E+000  5.281602019439000E+000  5.412057589319100E+000 
 5.545735411775300E+000  5.682715076446100E+000  5.823078138834400E+000  5.966908168863600E+000 
 6.114290800634500E+000  6.265313783410200E+000  6.420067033860400E+000  6.578642689596800E+000 
 6.741135164029800E+000  6.907641202581300E+000  7.078259940285100E+000  7.253092960810100E+000 
 7.432244356942100E+000  7.615820792558600E+000  7.803931566134800E+000  7.996688675818300E+000 
 8.194206886111100E+000  8.396603796198001E+000  8.603999909964100E+000  8.816518707740199E+000 
 9.034286719821401E+000  9.257433601801001E+000  9.486092211765500E+000  9.720398689396101E+000 
 9.960492537024100E+000  1.020651670268900E+001  1.045861766524500E+001  1.071694552157700E+001 
 1.098165407596000E+001  1.125290093163600E+001  1.153084758464700E+001  1.181565951998800E+001 
 1.210750631013200E+001  1.240656171599200E+001  1.271300379037700E+001  1.302701498399900E+001 
 1.334878225410400E+001  1.367849717578000E+001  1.401635605602200E+001  1.436256005060600E+001 
 1.471731528385600E+001  1.508083297136700E+001  1.545332954576000E+001  1.583502678554000E+001 
 1.622615194714300E+001  1.662693790023700E+001  1.703762326637300E+001  1.745845256105300E+001 
 1.788967633931100E+001  1.833155134489200E+001  1.878434066311000E+001  1.924831387748900E+001 
 1.972374723026300E+001  2.021092378685100E+001  2.071013360438600E+001  2.122167390441400E+001 
 2.174584924985300E+001  2.228297172632500E+001  2.283336112796500E+001  2.339734514782600E+001 
 2.397525957297700E+001  2.456744848442900E+001  2.517426446199500E+001  2.579606879420600E+001 
 2.643323169342300E+001  2.708613251625100E+001  2.775515998940200E+001  2.844071244114000E+001 
 2.914319803843600E+001  2.986303502998600E+001  3.060065199522600E+001  3.135648809950800E+001 
 3.213099335556600E+001  3.292462889144900E+001  3.373786722506800E+001  3.457119254552700E+001 
 3.542510100140100E+001  3.630010099613600E+001  3.719671349074000E+001  3.811547231396200E+001 
 3.905692448011700E+001  4.002163051477500E+001  4.101016478849000E+001  4.202311585876600E+001 
 4.306108682047800E+001  4.412469566494300E+001  4.521457564786800E+001  4.633137566637000E+001 
 4.747576064532900E+001  4.864841193326900E+001  4.985002770802100E+001  5.108132339240900E+001 
 5.234303208020100E+001  5.363590497258200E+001  5.496071182540500E+001  5.631824140749200E+001 
 5.770930197025700E+001  5.913472172892300E+001  6.059534935562700E+001  6.209205448471100E+001 
 6.362572823048400E+001  6.519728371777600E+001  6.680765662560600E+001  6.845780574425800E+001 
 7.014871354614100E+001  7.188138677073100E+001  7.365685702396800E+001  7.547618139246001E+001 
 7.734044307285400E+001
    </PP_R>
    <PP_RAB type="real" size="545" columns="4">
 3.244665801002125E-006  3.324809046286750E-006  3.406931829730111E-006  3.491083045924302E-006 
 3.577312797158707E-006  3.665672423248610E-006  3.756214532102645E-006  3.848993031045666E-006 
 3.944063158912645E-006  4.041481518937768E-006  4.141306112455320E-006  4.243596373433080E-006 
 4.348413203856802E-006  4.455819009992100E-006  4.565877739538890E-006  4.678654919705463E-006 
 4.794217696222195E-006  4.912634873319053E-006  5.033976954690074E-006  5.158316185470694E-006 
 5.285726595251813E-006  5.416284042154536E-006  5.550066257995822E-006  5.687152894568488E-006 
 5.827625571064089E-006  5.971567922669450E-006  6.119065650359505E-006  6.270206571923326E-006 
 6.425080674249900E-006  6.583780166903698E-006  6.746399537026374E-006  6.913035605590938E-006 
 7.083787585048939E-006  7.258757138399661E-006  7.438048439718186E-006  7.621768236179176E-006 
 7.810025911612729E-006  8.002933551629617E-006  8.200606010354982E-006  8.403160978810732E-006 
 8.610719054987374E-006  8.823403815645561E-006  9.041341889891998E-006  9.264663034572172E-006 
 9.493500211526238E-006  9.727989666750803E-006  9.968271011519511E-006  1.021448730550420E-005 
 1.046678514195000E-005  1.072531473495621E-005  1.099023000890964E-005  1.126168869012967E-005 
 1.153985240077604E-005  1.182488675507518E-005  1.211696145792533E-005  1.241625040593615E-005 
 1.272293179096286E-005  1.303718820619961E-005  1.335920675489271E-005  1.368917916173853E-005 
 1.402730188703351E-005  1.437377624364328E-005  1.472880851686132E-005  1.509261008722765E-005 
 1.546539755638230E-005  1.584739287602478E-005  1.623882348006264E-005  1.663992242002013E-005 
 1.705092850379474E-005  1.747208643783847E-005  1.790364697285304E-005  1.834586705308249E-005 
 1.879900996929367E-005  1.926334551553528E-005  1.973915014976909E-005  2.022670715846823E-005 
 2.072630682528237E-005  2.123824660386696E-005  2.176283129498230E-005  2.230037322796836E-005 
 2.285119244669933E-005  2.341561690013277E-005  2.399398263756604E-005  2.458663400871371E-005 
 2.519392386872928E-005  2.581621378828700E-005  2.645387426885668E-005  2.710728496329800E-005 
 2.777683490189122E-005  2.846292272396783E-005  2.916595691525062E-005  2.988635605105715E-005 
 3.062454904551774E-005  3.138097540694226E-005  3.215608549949426E-005  3.295034081133109E-005 
 3.376421422937103E-005  3.459819032083627E-005  3.545276562176203E-005  3.632844893261829E-005 
 3.722576162125389E-005  3.814523793329973E-005  3.908742531025292E-005  4.005288471541548E-005 
 4.104219096788719E-005  4.205593308479360E-005  4.309471463198800E-005  4.415915408339834E-005 
 4.524988518925813E-005  4.636755735343111E-005  4.751283602006171E-005  4.868640306975835E-005 
 4.988895722558080E-005  5.112121446905334E-005  5.238390846643807E-005  5.367779100555885E-005 
 5.500363244339513E-005  5.636222216474876E-005  5.775436905221732E-005  5.918090196780662E-005 
 6.064267024641093E-005  6.214054420149828E-005  6.367541564327615E-005  6.524819840966479E-005 
 6.685982891038299E-005  6.851126668446831E-005  7.020349497157616E-005  7.193752129737445E-005 
 7.371437807341977E-005  7.553512321183196E-005  7.740084075516507E-005  7.931264152181598E-005 
 8.127166376740537E-005  8.327907386246012E-005  8.533606698686347E-005  8.744386784143852E-005 
 8.960373137712194E-005  9.181694354213717E-005  9.408482204762877E-005  9.640871715220419E-005 
 9.879001246586366E-005  1.012301257737721E-004  1.037305098803828E-004  1.062926534744286E-004 
 1.089180820152469E-004  1.116083586410223E-004  1.143650850994566E-004  1.171899027014137E-004 
 1.200844932981379E-004  1.230505802826031E-004  1.260899296155817E-004  1.292043508770872E-004 
 1.323956983437506E-004  1.356658720928431E-004  1.390168191335342E-004  1.424505345661338E-004 
 1.459690627699168E-004  1.495744986203344E-004  1.532689887362572E-004  1.570547327580422E-004 
 1.609339846571643E-004  1.649090540781984E-004  1.689823077139282E-004  1.731561707144622E-004 
 1.774331281311110E-004  1.818157263959483E-004  1.863065748379291E-004  1.909083472364256E-004 
 1.956237834131642E-004  2.004556908634696E-004  2.054069464277986E-004  2.104804980045639E-004 
 2.156793663052758E-004  2.210066466530170E-004  2.264655108253461E-004  2.320592089427318E-004 
 2.377910714036180E-004  2.436645108672872E-004  2.496830242857180E-004  2.558501949855635E-004 
 2.621696948017043E-004  2.686452862633245E-004  2.752808248340195E-004  2.820802612074099E-004 
 2.890476436592422E-004  2.961871204576339E-004  3.035029423329275E-004  3.109994650085448E-004 
 3.186811517942550E-004  3.265525762435671E-004  3.346184248768053E-004  3.428834999712613E-004 
 3.513527224205431E-004  3.600311346643187E-004  3.689239036905268E-004  3.780363241116900E-004 
 3.873738213172583E-004  3.969419547037883E-004  4.067464209849827E-004  4.167930575832992E-004 
 4.270878461056168E-004  4.376369159044233E-004  4.484465477272583E-004  4.595231774561170E-004 
 4.708733999392823E-004  4.825039729177788E-004  4.944218210488651E-004  5.066340400287609E-004 
 5.191479008174628E-004  5.319708539676752E-004  5.451105340606603E-004  5.585747642519612E-004 
 5.723715609289755E-004  5.865091384839377E-004  6.009959142044871E-004  6.158405132853309E-004 
 6.310517739634935E-004  6.466387527803715E-004  6.626107299740598E-004  6.789772150044132E-004 
 6.957479522150161E-004  7.129329266347429E-004  7.305423699226204E-004  7.485867664596983E-004 
 7.670768595912478E-004  7.860236580231675E-004  8.054384423763303E-004  8.253327719030425E-004 
 8.457184913690307E-004  8.666077381058407E-004  8.880129492370576E-004  9.099468690832085E-004 
 9.324225567495663E-004  9.554533939012945E-004  9.790530927306466E-004  1.003235704121093E-003 
 1.028015626012897E-003  1.053407611975404E-003  1.079426779991196E-003  1.106088621456991E-003 
 1.133409010406971E-003  1.161404212964027E-003  1.190090897024226E-003  1.219486142180725E-003 
 1.249607449892603E-003  1.280472753904947E-003  1.312100430926396E-003  1.344509311570289E-003 
 1.377718691566073E-003  1.411748343247747E-003  1.446618527325975E-003  1.482350004950906E-003 
 1.518964050073201E-003  1.556482462110019E-003  1.594927578924141E-003  1.634322290123549E-003 
 1.674690050689610E-003  1.716054894941652E-003  1.758441450846708E-003  1.801874954682610E-003 
 1.846381266063267E-003  1.891986883335039E-003  1.938718959353417E-003  1.986605317649430E-003 
 2.035674468995392E-003  2.085955628379560E-003  2.137478732400544E-003  2.190274457090839E-003 
 2.244374236180971E-003  2.299810279814647E-003  2.356615593726072E-003  2.414823998891094E-003 
 2.474470151663663E-003  2.535589564409828E-003  2.598218626650637E-003  2.662394626728916E-003 
 2.728155774009286E-003  2.795541221627155E-003  2.864591089801346E-003  2.935346489719633E-003 
 3.007849548015487E-003  3.082143431851649E-003  3.158272374618336E-003  3.236281702271450E-003 
 3.316217860317397E-003  3.398128441467422E-003  3.482062213971493E-003  3.568069150656609E-003 
 3.656200458677821E-003  3.746508610007118E-003  3.839047372674300E-003  3.933871842779394E-003 
 4.031038477296102E-003  4.130605127685328E-003  4.232631074339284E-003  4.337177061875432E-003 
 4.444305335303707E-003  4.554079677085549E-003  4.666565445109653E-003  4.781829611603922E-003 
 4.899940803010499E-003  5.020969340844842E-003  5.144987283563729E-003  5.272068469467829E-003 
 5.402288560663706E-003  5.535725088112114E-003  5.672457497788430E-003  5.812567197983789E-003 
 5.956137607773997E-003  6.103254206685984E-003  6.254004585591094E-003  6.408478498855203E-003 
 6.566767917776908E-003  6.728967085346006E-003  6.895172572353957E-003  7.065483334891235E-003 
 7.240000773263065E-003  7.418828792362533E-003  7.602073863534080E-003  7.789845087963167E-003 
 7.982254261635863E-003  8.179415941898320E-003  8.381447515663235E-003  8.588469269300151E-003 
 8.800604460251823E-003  9.017979390420032E-003  9.240723481363369E-003  9.468969351353038E-003 
 9.702852894331634E-003  9.942513360821454E-003  1.018809344083385E-002  1.043973934882230E-002 
 1.069760091073832E-002  1.096183165323350E-002  1.123258889506831E-002  1.151003384077649E-002 
 1.179433167664388E-002  1.208565166905688E-002  1.238416726528270E-002  1.269005619673506E-002 
 1.300350058479436E-002  1.332468704923874E-002  1.365380681935514E-002  1.399105584779301E-002 
 1.433663492723367E-002  1.469074980993623E-002  1.505361133024171E-002  1.542543553009871E-002 
 1.580644378769201E-002  1.619686294924815E-002  1.659692546409460E-002  1.700686952305765E-002 
 1.742693920027724E-002  1.785738459852413E-002  1.829846199810753E-002  1.875043400946080E-002 
 1.921356972949443E-002  1.968814490181301E-002  2.017444208088769E-002  2.067275080028584E-002 
 2.118336774505284E-002  2.170659692835549E-002  2.224274987248608E-002  2.279214579433634E-002 
 2.335511179545648E-002  2.393198305680413E-002  2.452310303830684E-002  2.512882368335338E-002 
 2.574950562833145E-002  2.638551841735203E-002  2.703724072226025E-002  2.770506056810010E-002 
 2.838937556413255E-002  2.909059314056569E-002  2.980913079113841E-002  3.054541632167963E-002 
 3.129988810482598E-002  3.207299534101527E-002  3.286519832593846E-002  3.367696872458945E-002 
 3.450878985208583E-002  3.536115696143139E-002  3.623457753837896E-002  3.712957160357667E-002 
 3.804667202218544E-002  3.898642482113364E-002  3.994938951421623E-002  4.093613943521675E-002 
 4.194726207926656E-002  4.298335945262455E-002  4.404504843110418E-002  4.513296112735272E-002 
 4.624774526719760E-002  4.739006457529880E-002  4.856059917030747E-002  4.976004596981373E-002 
 5.098911910526923E-002  5.224855034716982E-002  5.353908954074477E-002  5.486150505240152E-002 
 5.621658422719430E-002  5.760513385760691E-002  5.902798066388894E-002  6.048597178628687E-002 
 6.197997528940918E-002  6.351088067905759E-002  6.507959943182889E-002  6.668706553779534E-002 
 6.833423605658051E-002  7.002209168717717E-002  7.175163735185121E-002  7.352390279444150E-002 
 7.533994319346315E-002  7.720083979034371E-002  7.910770053316275E-002  8.106166073633224E-002 
 8.306388375651969E-002  8.511556168530732E-002  8.721791605893346E-002  8.937219858558980E-002 
 9.157969189065243E-002  9.384171028035200E-002  9.615960052427806E-002  9.853474265722764E-002 
 1.009685508008593E-001  1.034624740056404E-001  1.060179971135809E-001  1.086366416422874E-001 
 1.113199666908507E-001  1.140695698681149E-001  1.168870882438579E-001  1.197741993234799E-001 
 1.227326220467704E-001  1.257641178113253E-001  1.288704915212661E-001  1.320535926618404E-001 
 1.353153164005882E-001  1.386576047156816E-001  1.420824475521609E-001  1.455918840066990E-001 
 1.491880035416637E-001  1.528729472291435E-001  1.566489090257026E-001  1.605181370786386E-001 
 1.644829350644800E-001  1.685456635605718E-001  1.727087414505189E-001  1.769746473643457E-001 
 1.813459211542448E-001  1.858251654067554E-001  1.904150469923023E-001  1.951182986530114E-001 
 1.999377206297430E-001  2.048761823292966E-001  2.099366240328304E-001  2.151220586464410E-001 
 2.204355734950085E-001  2.258803321603355E-001  2.314595763646962E-001  2.371766279009040E-001 
 2.430348906100543E-001  2.490378524081324E-001  2.551890873626032E-001  2.614922578204704E-001 
 2.679511165886372E-001  2.745695091683714E-001  2.813513760448201E-001  2.883007550331325E-001 
 2.954217836824581E-001  3.027187017394085E-001  3.101958536723718E-001  3.178576912580718E-001 
 3.257087762321517E-001  3.337537830050768E-001  3.419975014453079E-001  3.504448397310133E-001 
 3.591008272723700E-001  3.679706177059917E-001  3.770594919633354E-001  3.863728614148231E-001 
 3.959162710917732E-001  4.056954029877295E-001  4.157160794415300E-001  4.259842666037501E-001 
 4.365060779888624E-001  4.472877781151878E-001  4.583357862346127E-001  4.696566801546121E-001 
 4.812572001544315E-001  4.931442529982583E-001  5.053249160473099E-001  5.178064414736703E-001 
 5.305962605780693E-001  5.437019882143630E-001  5.571314273232522E-001  5.708925735781430E-001 
 5.849936201455157E-001  5.994429625630970E-001  6.142492037384203E-001  6.294211590707525E-001 
 6.449678616998028E-001  6.608985678837990E-001  6.772227625105190E-001  6.939501647445233E-001 
 7.110907338137091E-001  7.286546749389232E-001  7.466524454098985E-001  7.650947608115211E-001 
 7.839926014035693E-001  8.033572186582502E-001  8.232001419591142E-001  8.435331854654998E-001 
 8.643684551464852E-001  8.857183559886129E-001  9.075955993815180E-001  9.300132106862592E-001 
 9.529845369902130E-001  9.765232550538496E-001  1.000643379453681E+000  1.025359270926194E+000 
 1.050685644918083E+000  1.076637580347540E+000  1.103230528582146E+000  1.130480322638117E+000 
 1.158403186607270E+000  1.187015745316479E+000  1.216335034225802E+000  1.246378509571177E+000 
 1.277164058757573E+000  1.308710011008885E+000  1.341035148280810E+000  1.374158716443334E+000 
 1.408100436739483E+000  1.442880517526964E+000  1.478519666309871E+000  1.515039102067725E+000 
 1.552460567888813E+000  1.590806343915644E+000  1.630099260610383E+000  1.670362712347448E+000 
 1.711620671342425E+000  1.753897701924591E+000  1.797218975162127E+000  1.841610283848632E+000 
 1.887098057859699E+000
    </PP_RAB>
  </PP_MESH>
  <PP_LOCAL type="real" size="545" columns="4">
-1.653251334144860E+001 -1.653251336723420E+001 -1.653251339239200E+001 -1.653251341693680E+001 
-1.653251344088300E+001 -1.653251346424460E+001 -1.653251348703560E+001 -1.653251350926920E+001 
-1.653251353095840E+001 -1.653251355211600E+001 -1.653251357275440E+001 -1.653251359288540E+001 
-1.653251361252120E+001 -1.653251363167280E+001 -1.653251365035140E+001 -1.653251366856800E+001 
-1.653251368633320E+001 -1.653251370365700E+001 -1.653251372054960E+001 -1.653251373702040E+001 
-1.653251375307940E+001 -1.653251376873520E+001 -1.653251378399700E+001 -1.653251379887340E+001 
-1.653251381337300E+001 -1.653251382750380E+001 -1.653251384127360E+001 -1.653251385469020E+001 
-1.653251386776120E+001 -1.653251388049360E+001 -1.653251389289440E+001 -1.653251390497040E+001 
-1.653251391672840E+001 -1.653251392817420E+001 -1.653251393931420E+001 -1.653251395015440E+001 
-1.653251396070020E+001 -1.653251397095700E+001 -1.653251398093020E+001 -1.653251399062480E+001 
-1.653251400004560E+001 -1.653251400919700E+001 -1.653251401808360E+001 -1.653251402670940E+001 
-1.653251403507860E+001 -1.653251404319460E+001 -1.653251405106120E+001 -1.653251405868160E+001 