<UPF version="2.0.1">
  <PP_INFO>
    Generated using FHI98PP, converted with fhi2upf.x v.5.0.1
    Author: Abinit web site
    Generation date: 10-Jul-2012, PG
    Pseudopotential type: SL
    Element: Am
    Functional: SLA-PW

    Suggested minimum cutoff for wavefunctions:   0. Ry
    Suggested minimum cutoff for charge density:   0. Ry
    The Pseudo was generated with a Non-Relativistic Calculation
    L component and cutoff radius for Local Potential:  0   0.0000

    Valence configuration: 
    nl pn  l   occ       Rcut    Rcut US       E pseu
    7s  7  0  2.00      0.000      0.000     0.000000
    7p  7  1  0.00      0.000      0.000     0.000000
    6d  6  2  0.00      0.000      0.000     0.000000
    5f  5  3  7.00      0.000      0.000     0.000000

    Generation configuration: not available.
    Comment:
    americium, fhi98PP : Trouiller-Martins-type, LDA Ceperley/Alder Perdew/Wang (199
  </PP_INFO>
  <!--                               -->
  <!-- END OF HUMAN READABLE SECTION -->
  <!--                               -->
  <PP_HEADER generated="Generated using FHI98PP, converted with fhi2upf.x v.5.0.1"
             author="Abinit web site"
             date="10-Jul-2012, PG"
             comment="americium, fhi98PP : Trouiller-Martins-type, LDA Ceperley/Alder Perdew/Wang (199"
             element="Am"
             pseudo_type="SL"
             relativistic="no"
             is_ultrasoft="F"
             is_paw="F"
             is_coulomb="F"
             has_so="F"
             has_wfc="F"
             has_gipaw="F"
             paw_as_gipaw="F"
             core_correction="T"
             functional="SLA-PW"
             z_valence="9.000000000000000E+000"
             total_psenergy="0.000000000000000E+000"
             wfc_cutoff="0.000000000000000E+000"
             rho_cutoff="0.000000000000000E+000"
             l_max="3"
             l_max_rho="0"
             l_local="0"
             mesh_size="575"
             number_of_wfc="4"
             number_of_proj="3"/>
  <PP_MESH dx="2.439988682353512E-002" mesh="575" xmin="-5.075173815233819E+000" rmax="7.955784203499699E+001"
zmesh="9.500000000000000E+001">
    <PP_R type="real" size="575" columns="4">
 6.578947368421100E-005  6.741447368421100E-005  6.907961118421100E-005  7.078587758046100E-005 
 7.253428875669800E-005  7.432588568898800E-005  7.616173506550600E-005  7.804292992162399E-005 
 7.997059029068800E-005  8.194586387086800E-005  8.396992670847901E-005  8.604398389817799E-005 
 8.816927030046300E-005  9.034705127688499E-005  9.257862344342400E-005  9.486531544247599E-005 
 9.720848873390600E-005  9.960953840563300E-005  1.020698940042500E-004  1.045910203861600E-004 
 1.071744185897000E-004  1.098216267288600E-004  1.125342209090600E-004  1.153138161655200E-004 
 1.181620674248100E-004  1.210806704902000E-004  1.240713630513100E-004  1.271359257186700E-004 
 1.302761830839200E-004  1.334940048061000E-004  1.367913067248100E-004  1.401700520009100E-004 
 1.436322522853300E-004  1.471799689167800E-004  1.508153141490300E-004  1.545404524085100E-004 
 1.583576015830000E-004  1.622690343421000E-004  1.662770794903500E-004  1.703841233537600E-004 
 1.745926112006000E-004  1.789050486972500E-004  1.833240034000700E-004  1.878521062840500E-004 
 1.924920533092700E-004  1.972466070260100E-004  2.021185982195500E-004  2.071109275955700E-004 
 2.122265675071900E-004  2.174685637246100E-004  2.228400372486100E-004  2.283441861686500E-004 
 2.339842875670200E-004  2.397636994699200E-004  2.456858628468300E-004  2.517543036591500E-004 
 2.579726349595300E-004  2.643445590430300E-004  2.708738696513900E-004  2.775644542317800E-004 
 2.844202962513000E-004  2.914454775687100E-004  2.986441808646600E-004  3.060206921320200E-004 
 3.135794032276800E-004  3.213248144874000E-004  3.292615374052400E-004  3.373942973791500E-004 
 3.457279365244100E-004  3.542674165565700E-004  3.630178217455100E-004  3.719843619426300E-004 
 3.811723756826100E-004  3.905873333619700E-004  4.002348404960100E-004  4.101206410562600E-004 
 4.202506208903500E-004  4.306308112263400E-004  4.412673922636400E-004  4.521666968525500E-004 
 4.633352142648100E-004  4.747795940571500E-004  4.865066500303600E-004  4.985233642861100E-004 
 5.108368913839700E-004  5.234545626011600E-004  5.363838902974100E-004  5.496325723877500E-004 
 5.632084969257300E-004  5.771197467998000E-004  5.913746045457500E-004  6.059815572780300E-004 
 6.209493017428000E-004  6.362867494958400E-004  6.520030322083900E-004  6.681075071039400E-004 
 6.846097625294100E-004  7.015196236638800E-004  7.188471583683800E-004  7.366026831800800E-004 
 7.547967694546300E-004  7.734402496601600E-004  7.925442238267600E-004  8.121200661552800E-004 
 8.321794317893200E-004  8.527342637545200E-004  8.737968000692500E-004  8.953795810309600E-004 
 9.174954566824300E-004  9.401575944624800E-004  9.633794870457100E-004  9.871749603757400E-004 
 1.011558181897000E-003  1.036543668989900E-003  1.062146297613900E-003  1.088381311165000E-003 
 1.115264329550800E-003  1.142811358490700E-003  1.171038799045400E-003  1.199963457381800E-003 
 1.229602554779100E-003  1.259973737882200E-003  1.291095089207900E-003  1.322985137911300E-003 
 1.355662870817700E-003  1.389147743726900E-003  1.423459692997000E-003  1.458619147414000E-003 
 1.494647040355100E-003  1.531564822251900E-003  1.569394473361500E-003  1.608158516853500E-003 
 1.647880032219800E-003  1.688582669015600E-003  1.730290660940300E-003  1.773028840265600E-003 
 1.816822652620100E-003  1.861698172139800E-003  1.907682116991700E-003  1.954801865281400E-003 
 2.003085471353800E-003  2.052561682496300E-003  2.103259956053900E-003  2.155210476968500E-003 
 2.208444175749600E-003  2.262992746890600E-003  2.318888667738800E-003  2.376165217831900E-003 
 2.434856498712400E-003  2.494997454230600E-003  2.556623891350100E-003  2.619772501466400E-003 
 2.684480882252700E-003  2.750787560044300E-003  2.818732012777400E-003  2.888354693493000E-003 
 2.959697054422300E-003  3.032801571666500E-003  3.107711770486700E-003  3.184472251217700E-003 
 3.263128715822800E-003  3.343727995103600E-003  3.426318076582600E-003  3.510948133074200E-003 
 3.597668551961200E-003  3.686530965194600E-003  3.777588280034900E-003  3.870894710551800E-003 
 3.966505809902400E-003  4.064478503407000E-003  4.164871122441100E-003  4.267743439165400E-003 
 4.373156702112800E-003  4.481173672655000E-003  4.591858662369600E-003  4.705277571330100E-003 
 4.821497927342000E-003  4.940588926147300E-003  5.062621472623200E-003  5.187668222996900E-003 
 5.315803628105000E-003  5.447103977719200E-003  5.581647445968800E-003  5.719514137884300E-003 
 5.860786137090000E-003  6.005547554676100E-003  6.153884579276600E-003  6.305885528384800E-003 
 6.461640900935900E-003  6.621243431189000E-003  6.784788143939300E-003  6.952372411094600E-003 
 7.124096009648700E-003  7.300061181087000E-003  7.480372692259900E-003  7.665137897758700E-003 
 7.854466803833299E-003  8.048472133888001E-003  8.247269395594999E-003  8.450976949666201E-003 
 8.659716080323000E-003  8.873611067506899E-003  9.092789260874401E-003  9.317381155618001E-003 
 9.547520470161700E-003  9.783344225774700E-003  1.002499282815100E-002  1.027261015100700E-002 
 1.052634362173700E-002  1.078634430919300E-002  1.105276701363100E-002  1.132577035886700E-002 
 1.160551688673100E-002  1.189217315383300E-002  1.218590983073300E-002  1.248690180355200E-002 
 1.279532827810000E-002  1.311137288656900E-002  1.343522379686700E-002  1.376707382465000E-002 
 1.410712054811900E-002  1.445556642565700E-002  1.481261891637100E-002  1.517849060360500E-002 
 1.555339932151500E-002  1.593756828475600E-002  1.633122622138900E-002  1.673460750905800E-002 
 1.714795231453100E-002  1.757150673670000E-002  1.800552295309700E-002  1.845025937003800E-002 
 1.890598077647800E-002  1.937295850165700E-002  1.985147057664800E-002  2.034180189989100E-002 
 2.084424440681900E-002  2.135909724366700E-002  2.188666694558600E-002  2.242726761914200E-002 
 2.298122112933500E-002  2.354885729122900E-002  2.413051406632200E-002  2.472653776376100E-002 
 2.533728324652600E-002  2.596311414271500E-002  2.660440306204000E-002  2.726153181767200E-002 
 2.793489165356900E-002  2.862488347741200E-002  2.933191809930400E-002  3.005641647635700E-002 
 3.079880996332300E-002  3.155954056941700E-002  3.233906122148100E-002  3.313783603365200E-002 
 3.395634058368300E-002  3.479506219610000E-002  3.565450023234400E-002  3.653516638808300E-002 
 3.743758499786800E-002  3.836229334731600E-002  3.930984199299400E-002  4.028079509022100E-002 
 4.127573072895000E-002  4.229524127795500E-002  4.333993373752000E-002  4.441043010083700E-002 
 4.550736772432800E-002  4.663139970711900E-002  4.778319527988400E-002  4.896344020329800E-002 
 5.017283717631900E-002  5.141210625457400E-002  5.268198527906200E-002  5.398323031545500E-002 
 5.531661610424700E-002  5.668293652202100E-002  5.808300505411500E-002  5.951765527895200E-002 
 6.098774136434200E-002  6.249413857604100E-002  6.403774379887001E-002  6.561947607070200E-002 
 6.724027712964800E-002  6.890111197475000E-002  7.060296944052701E-002  7.234686278570800E-002 
 7.413383029651500E-002  7.596493590483901E-002  7.784126982168800E-002  7.976394918628400E-002 
 8.173411873118500E-002  8.375295146384500E-002  8.582164936500200E-002  8.794144410431801E-002 
 9.011359777369400E-002  9.233940363870501E-002  9.462018690858100E-002  9.695730552522300E-002 
 9.935215097169600E-002  1.018061491007000E-001  1.043207609834800E-001  1.068974837797800E-001 
 1.095378516291400E-001  1.122434365643800E-001  1.150158494475200E-001  1.178567409288700E-001 
 1.207678024298100E-001  1.237507671498300E-001  1.268074110984300E-001  1.299395541525600E-001 
 1.331490611401300E-001  1.364378429502900E-001  1.398078576711600E-001  1.432611117556400E-001 
 1.467996612160000E-001  1.504256128480400E-001  1.541411254853900E-001  1.579484112848800E-001 
 1.618497370436100E-001  1.658474255485900E-001  1.699438569596400E-001  1.741414702265400E-001 
 1.784427645411400E-001  1.828503008253000E-001  1.873667032556900E-001  1.919946608261000E-001 
 1.967369289485100E-001  2.015963310935400E-001  2.065757604715500E-001  2.116781817551900E-001 
 2.169066328445500E-001  2.222642266758100E-001  2.277541530747000E-001  2.333796806556500E-001 
 2.391441587678400E-001  2.450510194894100E-001  2.511037796707900E-001  2.573060430286600E-001 
 2.636615022914700E-001  2.701739413980700E-001  2.768472377506000E-001  2.836853645230400E-001 
 2.906923930267600E-001  2.978724951345200E-001  3.052299457643500E-001  3.127691254247200E-001 
 3.204945228227200E-001  3.284107375364400E-001  3.365224827535900E-001  3.448345880776000E-001 
 3.533520024031200E-001  3.620797968624700E-001  3.710231678449800E-001  3.801874400907500E-001 
 3.895780698609900E-001  3.992006481865600E-001  4.090609041967600E-001  4.191647085304200E-001 
 4.295180768311200E-001  4.401271733288500E-001  4.509983145100800E-001  4.621379728784800E-001 
 4.735527808085700E-001  4.852495344945500E-001  4.972351979965600E-001  5.095169073870800E-001 
 5.221019749995400E-001  5.349978937820200E-001  5.482123417584400E-001  5.617531865998699E-001 
 5.756284903088900E-001  5.898465140195200E-001  6.044157229158000E-001  6.193447912718200E-001 
 6.346426076162400E-001  6.503182800243600E-001  6.663811415409600E-001  6.828407557370200E-001 
 6.997069224037300E-001  7.169896833871000E-001  7.346993285667600E-001  7.528464019823600E-001 
 7.714417081113200E-001  7.904963183016700E-001  8.100215773637200E-001  8.300291103246100E-001 
 8.505308293496200E-001  8.715389408345600E-001  8.930659526731700E-001  9.151246817042000E-001 
 9.377282613423000E-001  9.608901493974500E-001  9.846241360875700E-001  1.008944352248900E+000 
 1.033865277749500E+000  1.059401750109900E+000  1.085568973337600E+000  1.112382526979000E+000 
 1.139858375395400E+000  1.168012877267700E+000  1.196862795336200E+000  1.226425306381000E+000 
 1.256718011448600E+000  1.287758946331400E+000  1.319566592305800E+000  1.352159887135700E+000 
 1.385558236348000E+000  1.419781524785800E+000  1.454850128448000E+000  1.490784926620700E+000 
 1.527607314308200E+000  1.565339214971600E+000  1.604003093581400E+000  1.643621969992900E+000 
 1.684219432651700E+000  1.725819652638200E+000  1.768447398058300E+000  1.812128048790400E+000 
 1.856887611595500E+000  1.902752735601900E+000  1.949750728171300E+000  1.997909571157100E+000 
 2.047257937564700E+000  2.097825208622500E+000  2.149641491275500E+000  2.202737636110000E+000 
 2.257145255721900E+000  2.312896743538300E+000  2.370025293103700E+000  2.428564917843300E+000 
 2.488550471314100E+000  2.550017667955500E+000  2.613003104354000E+000  2.677544281031600E+000 
 2.743679624773000E+000  2.811448511504900E+000  2.880891289739100E+000  2.952049304595700E+000 
 3.024964922419200E+000  3.099681556002900E+000  3.176243690436200E+000  3.254696909590000E+000 
 3.335087923256800E+000  3.417464594961300E+000  3.501875970456800E+000  3.588372306927100E+000 
 3.677005102908200E+000  3.767827128950100E+000  3.860892459035100E+000  3.956256502773300E+000 
 4.053976038391800E+000  4.154109246540100E+000  4.256715744929600E+000  4.361856623829400E+000 
 4.469594482437900E+000  4.579993466154200E+000  4.693119304768200E+000  4.809039351595900E+000 
 4.927822623580400E+000  5.049539842382800E+000  5.174263476489700E+000  5.302067784359000E+000 
 5.433028858632600E+000  5.567224671440800E+000  5.704735120825400E+000  5.845642078309800E+000 
 5.990029437644100E+000  6.137983164753900E+000  6.289591348923300E+000  6.444944255241700E+000 
 6.604134378346200E+000  6.767256497491300E+000  6.934407732979400E+000  7.105687603983900E+000 
 7.281198087802400E+000  7.461043680571100E+000  7.645331459481200E+000  7.834171146530400E+000 
 8.027675173849699E+000  8.225958750643700E+000  8.429139931784601E+000  8.637339688099701E+000 
 8.850681978395800E+000  9.069293823262200E+000  9.293305380696699E+000  9.522850023599901E+000 
 9.758064419182899E+000  9.999088610336701E+000  1.024606609901200E+001  1.049914393165800E+001 
 1.075847278677000E+001  1.102420706460300E+001  1.129650497909800E+001  1.157552865208200E+001 
 1.186144420978900E+001  1.215442188177000E+001  1.245463610225000E+001  1.276226561397600E+001 
 1.307749357464100E+001  1.340050766593400E+001  1.373150020528300E+001  1.407066826035400E+001 
 1.441821376638400E+001  1.477434364641400E+001  1.513926993448000E+001  1.551320990186200E+001 
 1.589638618643800E+001  1.628902692524300E+001  1.669136589029700E+001  1.710364262778700E+001 
 1.752610260069300E+001  1.795899733493000E+001  1.840258456910300E+001  1.885712840796000E+001 
 1.932289947963700E+001  1.980017509678400E+001  2.028923942167400E+001  2.079038363539000E+001 
 2.130390611118400E+001  2.183011259213000E+001  2.236931637315600E+001  2.292183848757200E+001 
 2.348800789821500E+001  2.406816169330100E+001  2.466264528712600E+001  2.527181262571800E+001 
 2.589602639757300E+001  2.653565824959300E+001  2.719108900835800E+001  2.786270890686500E+001 
 2.855091781686400E+001  2.925612548694100E+001  2.997875178646800E+001  3.071922695559400E+001 
 3.147799186139700E+001  3.225549826037400E+001  3.305220906740500E+001  3.386859863137000E+001 
 3.470515301756500E+001  3.556237029709800E+001  3.644076084343700E+001  3.734084763627000E+001 
 3.826316657288500E+001  3.920826678723600E+001  4.017671097688000E+001  4.116907573800900E+001 
 4.218595190873800E+001  4.322794492088400E+001  4.429567516043000E+001  4.538977833689300E+001 
 4.651090586181400E+001  4.765972523660100E+001  4.883692044994500E+001  5.004319238505800E+001 
 5.127925923696900E+001  5.254585694012200E+001  5.384373960654300E+001  5.517367997482500E+001 
 5.653646987020300E+001  5.793292067599700E+001  5.936386381669400E+001  6.083015125296700E+001 
 6.233265598891500E+001  6.387227259184100E+001  6.544991772486000E+001  6.706653069266400E+001 
 6.872307400077200E+001  7.042053392859100E+001  7.215992111662800E+001  7.394227116820799E+001 
 7.576864526606300E+001  7.764013080413500E+001  7.955784203499699E+001
    </PP_R>
    <PP_RAB type="real" size="575" columns="4">
 1.605255712074690E-006  1.644905528162935E-006  1.685534694708559E-006  1.727167401667860E-006 
 1.769828436489047E-006  1.813543198870316E-006  1.858337715882413E-006  1.904238657464708E-006 
 1.951273352304084E-006  1.999469804105995E-006  2.048856708267427E-006  2.099463468961621E-006 
 2.151320216644974E-006  2.204457825996118E-006  2.258907934298221E-006  2.314702960275373E-006 
 2.371876123394195E-006  2.430461463642020E-006  2.490493861793926E-006  2.552009060180359E-006 
 2.615043683966859E-006  2.679635262960704E-006  2.745822253955763E-006  2.813644063628623E-006 
 2.883141072000290E-006  2.954354656478629E-006  3.027327216493701E-006  3.102102198740916E-006 
 3.178724123049789E-006  3.257238608889293E-006  3.337692402528843E-006  3.420133404871236E-006 
 3.504610699971496E-006  3.591174584260849E-006  3.679876596492227E-006  3.770769548425560E-006 
 3.863907556271666E-006  3.959346072911574E-006  4.057141920912493E-006  4.157353326358992E-006 
 4.260039953520111E-006  4.365262940371939E-006  4.473084934999076E-006  4.583570132893511E-006 
 4.696784315176077E-006  4.812794887760952E-006  4.931670921488588E-006  5.053483193249285E-006 
 5.178304228122772E-006  5.306208342557219E-006  5.437271688618435E-006  5.571572299327294E-006 
 5.709190135120783E-006  5.850207131458136E-006  5.994707247605225E-006  6.142776516621154E-006 
 6.294503096581673E-006  6.449977323067229E-006  6.609291762946921E-006  6.772541269491726E-006 
 6.939823038848050E-006  7.111236667907668E-006  7.286884213605057E-006  7.466870253681173E-006 
 7.651301948947076E-006  7.840289107085978E-006  8.033944248031032E-006  8.232382670957412E-006 
 8.435722522929939E-006  8.644084869246482E-006  8.857593765516691E-006  9.076376331525097E-006 
 9.300562826913695E-006  9.530286728738451E-006  9.765684810938275E-006  1.000689722576842E-005 
 1.025406758724490E-005  1.050734305664981E-005  1.076687443014929E-005  1.103281622857393E-005 
 1.130532678941976E-005  1.158456836111841E-005  1.187070719963799E-005  1.216391366746905E-005 
 1.246436233505537E-005  1.277223208473138E-005  1.308770621722428E-005  1.341097256078957E-005 
 1.374222358304114E-005  1.408165650554237E-005  1.442947342122914E-005  1.478588141473350E-005 
 1.515109268567748E-005  1.552532467501354E-005  1.590880019448644E-005  1.630174755929032E-005 
 1.670440072400486E-005  1.711699942188762E-005  1.753978930760830E-005  1.797302210350625E-005 
 1.841695574946290E-005  1.887185455647465E-005  1.933798936401943E-005  1.981563770131069E-005 
 2.030508395253317E-005  2.080661952616083E-005  2.132054302845685E-005  2.184716044125972E-005 
 2.238678530415896E-005  2.293973890117154E-005  2.350635045203064E-005  2.408695730819583E-005 
 2.468190515370775E-005  2.529154821100541E-005  2.591624945181601E-005  2.655638081327676E-005 
 2.721232341936530E-005  2.788446780782350E-005  2.857321416267625E-005  2.927897255249383E-005 
 3.000216317453968E-005  3.074321660495218E-005  3.150257405509474E-005  3.228068763425472E-005 
 3.307802061882059E-005  3.389504772810553E-005  3.473225540699085E-005  3.559014211554290E-005 
 3.646921862579617E-005  3.737000832585405E-005  3.829304753150210E-005  3.923888580552950E-005 
 4.020808628492653E-005  4.120122601616350E-005  4.221889629876310E-005  4.326170303734437E-005 
 4.433026710236530E-005  4.542522469979332E-005  4.654722774987937E-005  4.769694427530150E-005 
 4.887505879890023E-005  5.008227275123455E-005  5.131930488818861E-005  5.258689171892855E-005 
 5.388578794438555E-005  5.521676690661150E-005  5.658062104920485E-005  5.797816238911904E-005 
 5.941022300013155E-005  6.087765550823488E-005  6.238133359928840E-005  6.392215253918966E-005 
 6.550102970690959E-005  6.711890514066925E-005  6.877674209764391E-005  7.047552762745568E-005 
 7.221627315985438E-005  7.400001510690204E-005  7.582781548004344E-005  7.770076252239999E-005 
 7.961997135670382E-005  8.158658464921384E-005  8.360177329004798E-005  8.566673709031240E-005 
 8.778270549644476E-005  8.995093832220594E-005  9.217272649876426E-005  9.444939284328465E-005 
 9.678229284651307E-005  9.917281547982221E-005  1.016223840221725E-004  1.041324569075203E-004 
 1.067045285931364E-004  1.093401304493872E-004  1.120408316714876E-004  1.148082402137726E-004 
 1.176440037470540E-004  1.205498106396050E-004  1.235273909624048E-004  1.265785175191739E-004 
 1.297050069018994E-004  1.329087205723764E-004  1.361915659705126E-004  1.395554976499860E-004 
 1.430025184419396E-004  1.465346806474549E-004  1.501540872594471E-004  1.538628932147571E-004 
 1.576633066771615E-004  1.615575903520870E-004  1.655480628337818E-004  1.696370999857762E-004 
 1.738271363554264E-004  1.781206666234049E-004  1.825202470890043E-004  1.870284971921022E-004 
 1.916481010727461E-004  1.963818091692434E-004  2.012324398557229E-004  2.062028811201594E-004 
 2.112960922838284E-004  2.165151057632370E-004  2.218630288755910E-004  2.273430456888181E-004 
 2.329584189173303E-004  2.387124918645885E-004  2.446086904136357E-004  2.506505250668688E-004 
 2.568415930360236E-004  2.631855803839913E-004  2.696862642194987E-004  2.763475149457035E-004 
 2.831732985648620E-004  2.901676790394080E-004  2.973348207116892E-004  3.046789907832653E-004 
 3.122045618556185E-004  3.199160145334506E-004  3.278179400924206E-004  3.359150432127128E-004 
 3.442121447800704E-004  3.527141847561250E-004  3.614262251196078E-004  3.703534528800533E-004 
 3.795011831662139E-004  3.888748623904091E-004  3.984800714914407E-004  4.083225292572962E-004 
 4.184080957299335E-004  4.287427756944650E-004  4.393327222541306E-004  4.501842404937956E-004 
 4.613037912339938E-004  4.726979948774733E-004  4.843736353509487E-004  4.963376641441121E-004 
 5.085972044484886E-004  5.211595553983558E-004  5.340321964167055E-004  5.472227916681988E-004 
 5.607391946224080E-004  5.745894527295674E-004  5.887818122119790E-004  6.033247229736355E-004 
 6.182268436310869E-004  6.334970466687701E-004  6.491444237214872E-004  6.651782909873986E-004 
 6.816081947747995E-004  6.984439171857333E-004  7.156954819402190E-004  7.333731603441471E-004 
 7.514874774046471E-004  7.700492180965398E-004  7.890694337835099E-004  8.085594487979728E-004 
 8.285308671832777E-004  8.489955796027054E-004  8.699657704189002E-004  8.914539249482496E-004 
 9.134728368944556E-004  9.360356159657647E-004  9.591556956801018E-004  9.828468413634016E-004 
 1.007123158345091E-003  1.031999100356213E-003  1.057489478134999E-003  1.083609468244940E-003 
 1.110374622110598E-003  1.137800875276732E-003  1.165904556896047E-003  1.194702399451401E-003 
 1.224211548717839E-003  1.254449573971168E-003  1.285434478448256E-003  1.317184710065932E-003 
 1.349719172404567E-003  1.383057235962938E-003  1.417218749691224E-003  1.452224052808606E-003 
 1.488093986912976E-003  1.524849908389721E-003  1.562513701126966E-003  1.601107789544800E-003 
 1.640655151946548E-003  1.681179334199621E-003  1.722704463754368E-003  1.765255264009100E-003 
 1.808857069030125E-003  1.853535838635171E-003  1.899318173849447E-003  1.946231332743536E-003 
 1.994303246662296E-003  2.043562536854848E-003  2.094038531515164E-003  2.145761283243599E-003 
 2.198761586939700E-003  2.253070998137129E-003  2.308721851791116E-003  2.365747281530358E-003 
 2.424181239384158E-003  2.484058515997022E-003  2.545414761341971E-003  2.608286505947314E-003 
 2.672711182644198E-003  2.738727148855516E-003  2.806373709432243E-003  2.875691140055127E-003 
 2.946720711214414E-003  3.019504712781500E-003  3.094086479187183E-003  3.170510415223077E-003 
 3.248822022479130E-003  3.329067926434335E-003  3.411295904217211E-003  3.495554913051433E-003 
 3.581895119403698E-003  3.670367928853087E-003  3.761026016695841E-003  3.853923359308249E-003 
 3.949115266283004E-003  4.046658413360263E-003  4.146610876170258E-003  4.249032164811587E-003 
 4.353983259282542E-003  4.461526645786670E-003  4.571726353937725E-003  4.684647994879852E-003 
 4.800358800353515E-003  4.918927662722290E-003  5.040425175991520E-003  5.164923677838332E-003 
 5.292497292681106E-003  5.423221975810319E-003  5.557175558612773E-003  5.694437794910629E-003 
 5.835090408444810E-003  5.979217141533503E-003  6.126903804929175E-003  6.278238328910962E-003 
 6.433310815635114E-003  6.592213592781318E-003  6.755041268522960E-003  6.921890787855481E-003 
 7.092861490315534E-003  7.268055169126305E-003  7.447576131803903E-003  7.631531262259230E-003 
 7.820030084437261E-003  8.013184827522833E-003  8.211110492762646E-003  8.413924921933793E-003 
 8.621748867505637E-003  8.834706064532854E-003  9.052923304326988E-003  9.276530509943839E-003 
 9.505660813539414E-003  9.740450635633925E-003  9.981039766333888E-003  1.022757144856233E-002 
 1.048019246334179E-002  1.073905321718636E-002  1.100430783165105E-002  1.127611423509286E-002 
 1.155463425669944E-002  1.184003372284012E-002  1.213248255579414E-002  1.243215487492238E-002 
 1.273922910033294E-002  1.305388805911095E-002  1.337631909417109E-002  1.370671417579703E-002 
 1.404527001593930E-002  1.439218818533301E-002  1.474767523351068E-002  1.511194281177839E-002 
 1.548520779922946E-002  1.586769243187040E-002  1.625962443493756E-002  1.666123715848048E-002 
 1.707276971629508E-002  1.749446712828752E-002  1.792658046635619E-002  1.836936700387521E-002 
 1.882309036887082E-002  1.928802070098194E-002  1.976443481229617E-002  2.025261635216003E-002 
 2.075285597605819E-002  2.126545151866693E-002  2.179070817117792E-002  2.232893866300608E-002 
 2.288046344798248E-002  2.344561089514753E-002  2.402471748425775E-002  2.461812800611811E-002 
 2.522619576787051E-002  2.584928280333660E-002  2.648776008857865E-002  2.714200776276560E-002 
 2.781241535450637E-002  2.849938201376350E-002  2.920331674950316E-002  2.992463867321579E-002 
 3.066377724844396E-002  3.142117254648100E-002  3.219727550837943E-002  3.299254821343510E-002 
 3.380746415430812E-002  3.464250851891965E-002  3.549817847933674E-002  3.637498348777719E-002 
 3.727344557992453E-002  3.819409968574835E-002  3.913749394798637E-002  4.010419004850260E-002 
 4.109476354270001E-002  4.210980420220477E-002  4.314991636599768E-002  4.421571930023929E-002 
 4.530784756695464E-002  4.642695140185821E-002  4.757369710148491E-002  4.874876741989083E-002 
 4.995286197516262E-002  5.118669766594795E-002  5.245100909829747E-002  5.374654902302529E-002 
 5.507408878389360E-002  5.643441877685746E-002  5.782834892064594E-002  5.925670913898439E-002 
 6.072034985471902E-002  6.222014249612916E-002  6.375698001578353E-002  6.533177742217476E-002 
 6.694547232450052E-002  6.859902549091584E-002  7.029342142054217E-002  7.202966892963064E-002 
 7.380880175219218E-002  7.563187915547000E-002  7.749998657061080E-002  7.941423623890552E-002 
 8.137576787400470E-002  8.338574934049402E-002  8.544537734920314E-002  8.755587816972887E-002 
 8.971850836052120E-002  9.193455551702771E-002  9.420533903829664E-002  9.653221091254338E-002 
 9.891655652208320E-002  1.013597954681792E-001  1.038633824162422E-001  1.064288079619244E-001 
 1.090575995185818E-001  1.117513222266928E-001  1.145115798856919E-001  1.173400159088667E-001 
 1.202383143018177E-001  1.232082006650717E-001  1.262514432215001E-001  1.293698538690712E-001 
 1.325652892596356E-001  1.358396519043480E-001  1.391948913063857E-001  1.426330051216537E-001 
 1.461560403481598E-001  1.497660945447591E-001  1.534653170800141E-001  1.572559104118903E-001 
 1.611401313990647E-001  1.651202926446204E-001  1.691987638729441E-001  1.733779733406036E-001 
 1.776604092821189E-001  1.820486213913868E-001  1.865452223397539E-001  1.911528893315461E-001 
 1.958743656980353E-001  2.007124625307747E-001  2.056700603552848E-001  2.107501108460609E-001 
 2.159556385839594E-001  2.212897428569838E-001  2.267555995055494E-001  2.323564628133363E-001 
 2.380956674448277E-001  2.439766304307146E-001  2.500028532023528E-001  2.561779236764608E-001 
 2.625055183912705E-001  2.689894046955296E-001  2.756334429914922E-001  2.824415890333888E-001 
 2.894178962825276E-001  2.965665183206868E-001  3.038917113232146E-001  3.113978365929084E-001 
 3.190893631567481E-001  3.269708704267044E-001  3.350470509262545E-001  3.433227130841454E-001 
 3.518027840973056E-001  3.604923128645168E-001  3.693964729922600E-001  3.785205658751772E-001 
 3.878700238522943E-001  3.974504134414455E-001  4.072674386534613E-001  4.173269443881936E-001 
 4.276349199145738E-001  4.381975024364609E-001  4.490209807466470E-001  4.601117989710931E-001 
 4.714765604056885E-001  4.831220314477082E-001  4.950551456244528E-001  5.072830077213927E-001 
 5.198128980121078E-001  5.326522765930010E-001  5.458087878248575E-001  5.592902648841083E-001 
 5.731047344267450E-001  5.872604213670878E-001  6.017657537748663E-001  6.166293678931051E-001 
 6.318601132800591E-001  6.474670580780753E-001  6.634594944126050E-001  6.798469439246100E-001 
 6.966391634395340E-001  7.138461507765017E-001  7.314781507006705E-001  7.495456610229829E-001 
 7.680594388502465E-001  7.870305069898595E-001  8.064701605125033E-001  8.263899734771645E-001 
 8.468018058220544E-001  8.677178104258383E-001  8.891504403433730E-001  9.111124562198569E-001 
 9.336169338884661E-001  9.566772721555293E-001  9.803072007777532E-001  1.004520788636965E+000 
 1.029332452116303E+000  1.054756963683579E+000  1.080809460686568E+000  1.107505454365535E+000 
 1.134860839088358E+000  1.162891901813845E+000  1.191615331788646E+000  1.221048230483810E+000 
 1.251208121776761E+000  1.282112962384644E+000  1.313781152555545E+000  1.346231547023676E+000 
 1.379483466235156E+000  1.413556707851165E+000  1.448471558535085E+000  1.484248806030918E+000 
 1.520909751539875E+000  1.558476222402905E+000  1.596970585096269E+000  1.636415758548146E+000 