<UPF version="2.0.1">
  <PP_INFO>
    Generated using FHI98PP, converted with fhi2upf.x v.5.0.1
    Author: Abinit web site
    Generation date: 10-Jul-2012, PG
    Pseudopotential type: SL
    Element: Ar
    Functional: SLA-PW

    Suggested minimum cutoff for wavefunctions:   0. Ry
    Suggested minimum cutoff for charge density:   0. Ry
    The Pseudo was generated with a Scalar-Relativistic Calculation
    L component and cutoff radius for Local Potential:  2   0.0000

    Valence configuration: 
    nl pn  l   occ       Rcut    Rcut US       E pseu
    3s  3  0  2.00      0.000      0.000     0.000000
    3p  3  1  6.00      0.000      0.000     0.000000
    3d  3  2  0.00      0.000      0.000     0.000000
    4f  4  3  0.00      0.000      0.000     0.000000

    Generation configuration: not available.
    Comment:
    argon, fhi98PP : Trouiller-Martins-type, LDA Ceperley/Alder Perdew/Wang (1992),
  </PP_INFO>
  <!--                               -->
  <!-- END OF HUMAN READABLE SECTION -->
  <!--                               -->
  <PP_HEADER generated="Generated using FHI98PP, converted with fhi2upf.x v.5.0.1"
             author="Abinit web site"
             date="10-Jul-2012, PG"
             comment="argon, fhi98PP : Trouiller-Martins-type, LDA Ceperley/Alder Perdew/Wang (1992),"
             element="Ar"
             pseudo_type="SL"
             relativistic="scalar"
             is_ultrasoft="F"
             is_paw="F"
             is_coulomb="F"
             has_so="F"
             has_wfc="F"
             has_gipaw="F"
             paw_as_gipaw="F"
             core_correction="F"
             functional="SLA-PW"
             z_valence="8.000000000000000E+000"
             total_psenergy="0.000000000000000E+000"
             wfc_cutoff="0.000000000000000E+000"
             rho_cutoff="0.000000000000000E+000"
             l_max="3"
             l_max_rho="0"
             l_local="2"
             mesh_size="507"
             number_of_wfc="4"
             number_of_proj="3"/>
  <PP_MESH dx="2.439988682353512E-002" mesh="507" xmin="-5.075173815233833E+000" rmax="7.990170243198000E+001"
zmesh="1.800000000000000E+001">
    <PP_R type="real" size="507" columns="4">
 3.472222222222200E-004  3.557986111111100E-004  3.645868368055600E-004  3.735921316746500E-004 
 3.828198573270200E-004  3.922755078029900E-004  4.019647128457300E-004  4.118932412530200E-004 
 4.220670043119700E-004  4.324920593184700E-004  4.431746131836400E-004  4.541210261292700E-004 
 4.653378154746700E-004  4.768316595168900E-004  4.886094015069600E-004  5.006780537241800E-004 
 5.130448016511700E-004  5.257170082519500E-004  5.387022183557800E-004  5.520081631491600E-004 
 5.656427647789500E-004  5.796141410689900E-004  5.939306103533900E-004  6.086006964291200E-004 
 6.236331336309200E-004  6.390368720316000E-004  6.548210827707800E-004  6.709951635152200E-004 
 6.875687440540500E-004  7.045516920321800E-004  7.219541188253800E-004  7.397863855603600E-004 
 7.580591092837000E-004  7.767831692830100E-004  7.959697135643000E-004  8.156301654893400E-004 
 8.357762305769300E-004  8.564199034721800E-004  8.775734750879400E-004  8.992495399226100E-004 
 9.214610035587000E-004  9.442210903466000E-004  9.675433512781600E-004  9.914416720547300E-004 
 1.015930281354500E-003  1.041023759303900E-003  1.066737046158700E-003  1.093085451198900E-003 
 1.120084661843500E-003  1.147750752991000E-003  1.176100196589900E-003  1.205149871445700E-003 
 1.234917073270400E-003  1.265419524980100E-003  1.296675387247200E-003  1.328703269312200E-003 
 1.361522240064200E-003  1.395151839393800E-003  1.429612089826800E-003  1.464923508445500E-003 
 1.501107119104100E-003  1.538184464946000E-003  1.576177621230100E-003  1.615109208474500E-003 
 1.655002405923900E-003  1.695880965350200E-003  1.737769225194300E-003  1.780692125056600E-003 
 1.824675220545500E-003  1.869744698493000E-003  1.915927392545800E-003  1.963250799141600E-003 
 2.011743093880400E-003  2.061433148299300E-003  2.112350547062300E-003  2.164525605574700E-003 
 2.217989388032400E-003  2.272773725916800E-003  2.328911236947000E-003  2.386435344499600E-003 
 2.445380297508700E-003  2.505781190857200E-003  2.567673986271300E-003  2.631095533732200E-003 
 2.696083593415400E-003  2.762676858172800E-003  2.830914976569600E-003  2.900838576490900E-003 
 2.972489289330200E-003  3.045909774776700E-003  3.121143746213700E-003  3.198235996745200E-003 
 3.277232425864800E-003  3.358180066783600E-003  3.441127114433200E-003  3.526122954159700E-003 
 3.613218191127400E-003  3.702464680448300E-003  3.793915558055300E-003  3.887625272339300E-003 
 3.983649616566100E-003  4.082045762095300E-003  4.182872292419000E-003  4.286189238041800E-003 
 4.392058112221400E-003  4.500541947593300E-003  4.611705333698800E-003  4.725614455441200E-003 
 4.842337132490600E-003  4.961942859663100E-003  5.084502848296800E-003  5.210090068649700E-003 
 5.338779293345400E-003  5.470647141891000E-003  5.605772126295700E-003  5.744234697815200E-003 
 5.886117294851200E-003  6.031504392034100E-003  6.180482550517300E-003  6.333140469515100E-003 
 6.489569039112100E-003  6.649861394378200E-003  6.814112970819300E-003  6.982421561198600E-003 
 7.154887373760200E-003  7.331613091892000E-003  7.512703935261800E-003  7.698267722462700E-003 
 7.888414935207600E-003  8.083258784107200E-003  8.282915276074601E-003  8.487503283393700E-003 
 8.697144614493500E-003  8.911964086471500E-003  9.132089599407299E-003  9.357652212512699E-003 
 9.588786222161800E-003  9.825629241849100E-003  1.006832228412300E-002  1.031700984454100E-002 
 1.057183998770100E-002  1.083296443539700E-002  1.110053865695100E-002  1.137472196177800E-002 
 1.165567759423400E-002  1.194357283081200E-002  1.223857907973300E-002  1.254087198300200E-002 
 1.285063152098200E-002  1.316804211955000E-002  1.349329275990300E-002  1.382657709107300E-002 
 1.416809354522200E-002  1.451804545578900E-002  1.487664117854700E-002  1.524409421565700E-002 
 1.562062334278400E-002  1.600645273935100E-002  1.640181212201300E-002  1.680693688142700E-002 
 1.722206822239800E-002  1.764745330749100E-002  1.808334540418600E-002  1.853000403567000E-002 
 1.898769513535100E-002  1.945669120519400E-002  1.993727147796200E-002  2.042972208346800E-002 
 2.093433621892900E-002  2.145141432353700E-002  2.198126425732800E-002  2.252420148448400E-002 
 2.308054926115100E-002  2.365063882790100E-002  2.423480960695100E-002  2.483340940424200E-002 
 2.544679461652700E-002  2.607533044355500E-002  2.671939110551100E-002  2.737936006581700E-002 
 2.805563025944300E-002  2.874860432685100E-002  2.945869485372400E-002  3.018632461661100E-002 
 3.093192683464200E-002  3.169594542745700E-002  3.247883527951600E-002  3.328106251092000E-002 
 3.410310475493900E-002  3.494545144238600E-002  3.580860409301300E-002  3.669307661411100E-002 
 3.759939560647900E-002  3.852810067795900E-002  3.947974476470500E-002  4.045489446039300E-002 
 4.145413035356500E-002  4.247804737329800E-002  4.352725514341800E-002  4.460237834546100E-002 
 4.570405709059300E-002  4.683294730073100E-002  4.798972109905900E-002  4.917506721020600E-002 
 5.038969137029800E-002  5.163431674714400E-002  5.290968437079900E-002  5.421655357475800E-002 
 5.555570244805400E-002  5.692792829852100E-002  5.833404812749400E-002  5.977489911624400E-002 
 6.125133912441500E-002  6.276424720078801E-002  6.431452410664699E-002  6.590309285208100E-002 
 6.753089924552801E-002  6.919891245689200E-002  7.090812559457800E-002  7.265955629676400E-002 
 7.445424733729400E-002  7.629326724652501E-002  7.817771094751400E-002  8.010870040791800E-002 
 8.208738530799300E-002  8.411494372510100E-002  8.619258283511100E-002  8.832153963113799E-002 
 9.050308166002700E-002  9.273850777702999E-002  9.502914891912199E-002  9.737636889742500E-002 
 9.978156520919100E-002  1.022461698698600E-001  1.047716502656400E-001  1.073595100272000E-001 
 1.100112899248800E-001  1.127285687860200E-001  1.155129644350400E-001  1.183661346565800E-001 
 1.212897781826000E-001  1.242856357037100E-001  1.273554909055900E-001  1.305011715309600E-001 
 1.337245504677700E-001  1.370275468643300E-001  1.404121272718800E-001  1.438803068154900E-001 
 1.474341503938300E-001  1.510757739085600E-001  1.548073455241000E-001  1.586310869585500E-001 
 1.625492748064300E-001  1.665642418941400E-001  1.706783786689300E-001  1.748941346220500E-001 
 1.792140197472200E-001  1.836406060349700E-001  1.881765290040400E-001  1.928244892704400E-001 
 1.975872541554200E-001  2.024676593330500E-001  2.074686105185800E-001  2.125930851983900E-001 
 2.178441344027900E-001  2.232248845225400E-001  2.287385391702500E-001  2.343883810877500E-001 
 2.401777741006200E-001  2.461101651209000E-001  2.521890861993900E-001  2.584181566285100E-001 
 2.648010850972400E-001  2.713416718991400E-001  2.780438111950500E-001  2.849114933315700E-001 
 2.919488072168600E-001  2.991599427551100E-001  3.065491933411600E-001  3.141209584166900E-001 
 3.218797460895800E-001  3.298301758180000E-001  3.379769811607000E-001  3.463250125953700E-001 
 3.548792404064800E-001  3.636447576445200E-001  3.726267831583400E-001  3.818306647023500E-001 
 3.912618821204900E-001  4.009260506088700E-001  4.108289240589100E-001  4.209763984831600E-001 
 4.313745155257000E-001  4.420294660591800E-001  4.529475938708500E-001  4.641353994394600E-001 
 4.755995438056100E-001  4.873468525376100E-001  4.993843197952900E-001  5.117191124942300E-001 
 5.243585745728400E-001  5.373102313647899E-001  5.505817940795000E-001  5.641811643932600E-001 
 5.781164391537700E-001  5.923959152008700E-001  6.070280943063300E-001  6.220216882357000E-001 
 6.373856239351200E-001  6.531290488463199E-001  6.692613363528200E-001  6.857920913607400E-001 
 7.027311560173500E-001  7.200886155709800E-001  7.378748043755800E-001  7.561003120436600E-001 
 7.747759897511400E-001  7.939129566979900E-001  8.135226067284300E-001  8.336166151146200E-001 
 8.542069455079500E-001  8.753058570620000E-001  8.969259117314300E-001  9.190799817512000E-001 
 9.417812573004500E-001  9.650432543557700E-001  9.888798227383599E-001  1.013305154360000E+000 
 1.038333791672700E+000  1.063980636327000E+000  1.090260958044300E+000  1.117190403708000E+000 
 1.144785006679600E+000  1.173061196344500E+000  1.202035807894300E+000  1.231726092349200E+000 
 1.262149726830300E+000  1.293324825083000E+000  1.325269948262500E+000  1.358004115984600E+000 
 1.391546817649400E+000  1.425918024045400E+000  1.461138199239300E+000  1.497228312760500E+000 
 1.534209852085700E+000  1.572104835432200E+000  1.610935824867400E+000  1.650725939741600E+000 
 1.691498870453200E+000  1.733278892553400E+000  1.776090881199500E+000  1.819960325965100E+000 
 1.864913346016500E+000  1.910976705663100E+000  1.958177830292900E+000  2.006544822701200E+000 
 2.056106479821900E+000  2.106892309873500E+000  2.158932549927400E+000  2.212258183910600E+000 
 2.266900961053200E+000  2.322893414791200E+000  2.380268882136500E+000  2.439061523525300E+000 
 2.499306343156400E+000  2.561039209832300E+000  2.624296878315200E+000  2.689117011209600E+000 
 2.755538201386400E+000  2.823599994960700E+000  2.893342914836200E+000  2.964808484832700E+000 
 3.038039254408000E+000  3.113078823991900E+000  3.189971870944500E+000  3.268764176156800E+000 
 3.349502651307900E+000  3.432235366795200E+000  3.517011580355100E+000  3.603881766389800E+000 
 3.692897646019700E+000  3.784112217876400E+000  3.877579789657900E+000  3.973356010462500E+000 
 4.071497903920900E+000  4.172063902147700E+000  4.275113880530800E+000  4.380709193379900E+000 
 4.488912710456400E+000  4.599788854404600E+000  4.713403639108400E+000  4.829824708994400E+000 
 4.949121379306600E+000  5.071364677375400E+000  5.196627384906600E+000  5.324984081313800E+000 
 5.456511188122300E+000  5.591287014468900E+000  5.729391803726300E+000  5.870907781278300E+000 
 6.015919203475900E+000  6.164512407801700E+000  6.316775864274400E+000  6.472800228122000E+000 
 6.632678393756600E+000  6.796505550082400E+000  6.964379237169400E+000  7.136399404327500E+000 
 7.312668469614400E+000  7.493291380813900E+000  7.678375677920000E+000  7.868031557164600E+000 
 8.062371936626599E+000  8.261512523461301E+000  8.465571882790700E+000  8.674671508295701E+000 
 8.888935894550601E+000  9.108492611146000E+000  9.333472378641300E+000  9.564009146393699E+000 
 9.800240172309600E+000  1.004230610456600E+001  1.029035106534800E+001  1.054452273666300E+001 
 1.080497244825800E+001  1.107185526773000E+001  1.134533009284300E+001  1.162555974613600E+001 
 1.191271107186600E+001  1.220695503534100E+001  1.250846682471400E+001  1.281742595528400E+001 
 1.313401637638000E+001  1.345842658087600E+001  1.379084971742400E+001  1.413148370544400E+001 
 1.448053135296900E+001  1.483820047738700E+001  1.520470402917900E+001  1.558026021869900E+001 
 1.596509264610100E+001  1.635943043446000E+001  1.676350836619100E+001  1.717756702283600E+001 
 1.760185292830000E+001  1.803661869562900E+001  1.848212317741100E+001  1.893863161989300E+001 
 1.940641582090500E+001  1.988575429168100E+001  2.037693242268500E+001  2.088024265352600E+001 
 2.139598464706800E+001  2.192446546785000E+001  2.246599976490600E+001  2.302090995909900E+001 
 2.358952643508900E+001  2.417218773803600E+001  2.476924077516500E+001  2.538104102231200E+001 
 2.600795273556300E+001  2.665034916813100E+001  2.730861279258400E+001  2.798313552856100E+001 
 2.867431897611700E+001  2.938257465482700E+001  3.010832424880100E+001  3.085199985774600E+001 
 3.161404425423300E+001  3.239491114731200E+001  3.319506545265100E+001  3.401498356933100E+001 
 3.485515366349400E+001  3.571607595898200E+001  3.659826303516900E+001  3.750224013213800E+001 
 3.842854546340100E+001  3.937773053634700E+001  4.035036048059500E+001  4.134701438446600E+001 
 4.236828563976200E+001  4.341478229506400E+001  4.448712741775200E+001  4.558595946497100E+001 
 4.671193266375600E+001  4.786571740055000E+001  4.904800062034400E+001  5.025948623566600E+001 
 5.150089554568700E+001  5.277296766566600E+001  5.407645996700800E+001  5.541214852819300E+001 
 5.678082859683900E+001  5.818331506318100E+001  5.962044294524200E+001  6.109306788598900E+001 
 6.260206666277300E+001  6.414833770934401E+001  6.573280165076400E+001  6.735640185153800E+001 
 6.902010497727100E+001  7.072490157020999E+001  7.247180663899400E+001  7.426186026297700E+001 
 7.609612821147300E+001  7.797570257829599E+001  7.990170243198000E+001
    </PP_R>
    <PP_RAB type="real" size="507" columns="4">
 8.472182924838530E-006  8.681445843082070E-006  8.895877555406332E-006  9.115605731024690E-006 
 9.340761192581150E-006  9.571477994037724E-006  9.807893500490607E-006  1.005014846995273E-005 
 1.029838713716058E-005  1.055275729944831E-005  1.081341040474477E-005  1.108050164174182E-005 
 1.135419003229302E-005  1.163463852609055E-005  1.192201409768506E-005  1.221648784589783E-005 
 1.251823509569157E-005  1.282743550255506E-005  1.314427315946834E-005  1.346893670650701E-005 
 1.380161944315788E-005  1.414251944340388E-005  1.449183967365585E-005  1.484978811359518E-005 
 1.521657788000100E-005  1.559242735363694E-005  1.597756030927176E-005  1.637220604891081E-005 
 1.677659953831900E-005  1.719098154691536E-005  1.761559879112430E-005  1.805070408126490E-005 
 1.849655647207212E-005  1.895342141693237E-005  1.942157092593059E-005  1.990128372780112E-005 
 2.039284543587789E-005  2.089654871814406E-005  2.141269347148215E-005  2.194158700022771E-005 
 2.248354419913337E-005  2.303888774085197E-005  2.360794826805099E-005  2.419106459027184E-005 
 2.478858388565199E-005  2.540086190762623E-005  2.602826319674444E-005  2.667116129770598E-005 
 2.732993898175901E-005  2.800498847460761E-005  2.869671168993097E-005  2.940552046867298E-005 
 3.013183682424899E-005  3.087609319380601E-005  3.163873269569526E-005  3.242020939327879E-005 
 3.322098856529250E-005  3.404154698285557E-005  3.488237319333145E-005  3.574396781120620E-005 
 3.662684381614290E-005  3.753152685840233E-005  3.845855557180325E-005  3.940848189442719E-005 
 4.038187139722149E-005  4.137930362073237E-005  4.240137242016323E-005  4.344868631894129E-005 
 4.452186887101919E-005  4.562155903213400E-005  4.674841154022827E-005  4.790309730526992E-005 
 4.908630380871015E-005  5.029873551278661E-005  5.154111427995261E-005  5.281417980266650E-005 
 5.411869004379248E-005  5.545542168787414E-005  5.682517060356599E-005  5.822875231747429E-005 
 5.966700249971492E-005  6.114077746145874E-005  6.265095466475498E-005  6.419843324497441E-005 
 6.578413454612563E-005  6.740900266941591E-005  6.907400503534882E-005  7.078013295972268E-005 
 7.252840224382723E-005  7.431985377925083E-005  7.615555416759871E-005  7.803659635553892E-005 
 7.996410028552058E-005  8.193921356257145E-005  8.396311213756807E-005  8.603700100736600E-005 
 8.816211493224685E-005  9.033971917107465E-005  9.257111023459841E-005  9.485761665739383E-005 
 9.720059978883191E-005  9.960145460361651E-005  1.020616105323245E-004  1.045825323124742E-004 
 1.071657208605915E-004  1.098127141658489E-004  1.125250882057440E-004  1.153044578844268E-004 
 1.181524779941722E-004  1.210708442006279E-004  1.240612940523839E-004  1.271256080154770E-004 
 1.302656105334606E-004  1.334831711136363E-004  1.367802054401429E-004  1.401586765145143E-004 
 1.436205958244220E-004  1.471680245412870E-004  1.508030747474558E-004  1.545279106937185E-004 
 1.583447500878528E-004  1.622558654150235E-004  1.662635852907736E-004  1.703702958474572E-004 
 1.745784421548893E-004  1.788905296761132E-004  1.833091257591149E-004  1.878368611653634E-004 
 1.924764316361496E-004  1.972305994975618E-004  2.021021953051504E-004  2.070941195291890E-004 
 2.122093442815594E-004  2.174509150853142E-004  2.228219526879203E-004  2.283256549193129E-004 
 2.339652985958208E-004  2.397442414711353E-004  2.456659242354778E-004  2.517338725640981E-004 
 2.579516992164273E-004  2.643231061870678E-004  2.708518869098809E-004  2.775419285165626E-004 
 2.843972141509237E-004  2.914218253404618E-004  2.986199444263698E-004  3.059958570536912E-004 
 3.135539547229138E-004  3.212987374045635E-004  3.292348162184591E-004  3.373669161790647E-004 
 3.456998790086752E-004  3.542386660201900E-004  3.629883610708889E-004  3.719541735893372E-004 
 3.811414416770005E-004  3.905556352864281E-004  4.002023594780036E-004  4.100873577571171E-004 
 4.202165154937118E-004  4.305958634264009E-004  4.412315812530324E-004  4.521300013099971E-004 
 4.632976123423528E-004  4.747410633672048E-004  4.864671676323676E-004  4.984829066728954E-004 
 5.107954344676998E-004  5.234120816990630E-004  5.363403601170210E-004  5.495879670119113E-004 
 5.631627897971116E-004  5.770729107050897E-004  5.913266115995261E-004  6.059323789060176E-004 
 6.208989086650017E-004  6.362351117090218E-004  6.519501189682394E-004  6.680532869067519E-004 
 6.845542030933565E-004  7.014626919097565E-004  7.187888203999221E-004  7.365429042638005E-004 
 7.547355139991338E-004  7.733774811948962E-004  7.924799049804300E-004  8.120541586334457E-004 
 8.321118963516741E-004  8.526650601915606E-004  8.737258871782937E-004  8.953069165916118E-004 
 9.174209974314113E-004  9.400812960679663E-004  9.633013040808552E-004  9.870948462916472E-004 
 1.011476088995058E-003  1.036459548393235E-003  1.062060099238536E-003  1.088292983689742E-003 
 1.115173820386857E-003  1.142718613750421E-003  1.170943763510055E-003  1.199866074468759E-003 
 1.229502766508136E-003  1.259871484840878E-003  1.290990310516461E-003  1.322877771186224E-003 
 1.355552852134511E-003  1.389035007582235E-003  1.423344172269504E-003  1.458500773324583E-003 
 1.494525742425695E-003  1.531440528263608E-003  1.569267109311708E-003  1.608028006911703E-003 
 1.647746298682437E-003  1.688445632259879E-003  1.730150239376717E-003  1.772884950289320E-003 
 1.816675208561465E-003  1.861547086212929E-003  1.907527299242384E-003  1.954643223533681E-003 
 2.002922911154949E-003  2.052395107060490E-003  2.103089266204884E-003  2.155035571080139E-003 
 2.208264949685816E-003  2.262809093943064E-003  2.318700478563441E-003  2.375972380383975E-003 
 2.434658898179450E-003  2.494794972964531E-003  2.556416408796620E-003  2.619559894093864E-003 
 2.684263023478182E-003  2.750564320157982E-003  2.818503258866014E-003  2.888120289359870E-003 
 2.959456860507120E-003  3.032555444961640E-003  3.107459564452152E-003  3.184213815694168E-003 
 3.262863896941698E-003  3.343456635196307E-003  3.426040014085681E-003  3.510663202433465E-003 
 3.597376583533508E-003  3.686231785146844E-003  3.777281710239936E-003  3.870580568482978E-003 
 3.966183908524601E-003  4.064148651064943E-003  4.164533122746362E-003  4.267397090878136E-003 
 4.372801799022956E-003  4.480810003458669E-003  4.591486010544250E-003  4.704895715004698E-003 
 4.821106639165317E-003  4.940187973152484E-003  5.062210616089440E-003  5.187247218306876E-003 
 5.315372224599049E-003  5.446661918546673E-003  5.581194467934855E-003  5.719049971292720E-003 
 5.860310505583713E-003  6.005060175071501E-003  6.153385161395859E-003  6.305373774882216E-003 
 6.461116507121948E-003  6.620706084847816E-003  6.784237525143588E-003  6.951808192014690E-003 
 7.123517854357457E-003  7.299468745359929E-003  7.479765623370290E-003  7.664515834267619E-003 
 7.853829375373973E-003  8.047818960945891E-003  8.246600089281143E-003  8.450291111486404E-003 
 8.659013301940225E-003  8.872890930498145E-003  9.092051336481459E-003  9.316625004492526E-003 
 9.546745642103296E-003  9.782550259463342E-003  1.002417925087211E-002  1.027177647836853E-002 
 1.052548935738437E-002  1.078546894451165E-002  1.105187002744129E-002  1.132485121711909E-002 
 1.160457504218182E-002  1.189120804572374E-002  1.218492088445315E-002  1.248588843029905E-002 
 1.279428987452750E-002  1.311030883442835E-002  1.343413346263872E-002  1.376595655916581E-002 
 1.410597568617711E-002  1.445439328562574E-002  1.481141679978066E-002  1.517725879473533E-002 
 1.555213708696525E-002  1.593627487301335E-002  1.632990086237668E-002  1.673324941367751E-002 
 1.714656067419534E-002  1.757008072284800E-002  1.800406171670227E-002  1.844876204110489E-002 
 1.890444646352022E-002  1.937138629116910E-002  1.984985953256097E-002  2.034015106301517E-002 
 2.084255279427161E-002  2.135736384829021E-002  2.188489073534294E-002  2.242544753650600E-002 
 2.297935609065759E-002  2.354694618609680E-002  2.412855575689345E-002  2.472453108408879E-002 
 2.533522700186597E-002  2.596100710881168E-002  2.660224398439989E-002  2.725931941081471E-002 
 2.793262460026213E-002  2.862256042788651E-002  2.932953767045753E-002  3.005397725091565E-002 
 3.079631048901509E-002  3.155697935809356E-002  3.233643674823725E-002  3.313514673591910E-002 
 3.395358486029582E-002  3.479223840634659E-002  3.565160669498283E-002  3.653220138034864E-002 
 3.743454675444364E-002  3.835918005927798E-002  3.930665180674275E-002  4.027752610636870E-002 
 4.127238100119558E-002  4.229180881192525E-002  4.333641648958056E-002  4.440682597687253E-002 
 4.550367457850279E-002  4.662761534059163E-002  4.777931743950233E-002  4.895946658025963E-002 
 5.016876540479157E-002  5.140793391028989E-002  5.267770987787465E-002  5.397884931185799E-002 
 5.531212688986107E-002  5.667833642404031E-002  5.807829133371305E-002  5.951282512965647E-002 
 6.098279191035959E-002  6.248906687054394E-002  6.403254682224739E-002  6.561415072875726E-002 
 6.723482025175569E-002  6.889552031197542E-002  7.059723966368051E-002  7.234099148337451E-002 
 7.412781397301223E-002  7.595877097814617E-002  7.783495262130638E-002  7.975747595105194E-002 
 8.172748560704358E-002  8.374615450153743E-002  8.581468451772684E-002  8.793430722531295E-002 
 9.010628461377994E-002  9.233190984374064E-002  9.461250801687987E-002  9.694943696489804E-002 
 9.934408805793044E-002  1.017978870329602E-001  1.043122948426756E-001  1.068888085252894E-001 
 1.095289620958644E-001  1.122343274596305E-001  1.150065153478835E-001  1.178471762769768E-001 
 1.207580015310191E-001  1.237407241688335E-001  1.267971200558043E-001  1.299290089211829E-001 
 1.331382554415373E-001  1.364267703509427E-001  1.397965115786115E-001  1.432494854146022E-001 
 1.467877477043435E-001  1.504134050726395E-001  1.541286161779336E-001  1.579355929975291E-001 
 1.618366021445678E-001  1.658339662175389E-001  1.699300651831112E-001  1.741273377931345E-001 
 1.784282830366251E-001  1.828354616276304E-001  1.873514975298328E-001  1.919790795188190E-001 
 1.967209627829347E-001  2.015799705636738E-001  2.065589958365942E-001  2.116610030337598E-001 
 2.168890298086936E-001  2.222461888449683E-001  2.277356697094389E-001  2.333607407512610E-001 
 2.391247510478166E-001  2.450311323987062E-001  2.510834013689353E-001  2.572851613827700E-001 
 2.636401048689104E-001  2.701520154591731E-001  2.768247702410164E-001  2.836623420659641E-001 
 2.906688019150042E-001  2.978483213223025E-001  3.052051748589653E-001  3.127437426779711E-001 
 3.204685131221289E-001  3.283840853962312E-001  3.364951723055269E-001  3.448066030614643E-001 
 3.533233261570955E-001  3.620504123131676E-001  3.709930574973160E-001  3.801565860174821E-001 
 3.895464536921173E-001  3.991682510983199E-001  4.090277069004445E-001  4.191306912608876E-001 
 4.294832193350303E-001  4.400914548526052E-001  4.509617137874637E-001  4.621004681180128E-001 
 4.735143496805434E-001  4.852101541176442E-001  4.971948449243374E-001  5.094755575939851E-001 
 5.220596038665543E-001  5.349544760820439E-001  5.481678516412731E-001  5.617075975768081E-001 
 5.755817752369615E-001  5.897986450853219E-001  6.043666716189173E-001  6.192945284079150E-001 
 6.345911032595878E-001  6.502655035100898E-001  6.663270614467930E-001  6.827853398645330E-001 
 6.996501377592003E-001  7.169314961618504E-001  7.346397041170425E-001  7.527853048087241E-001 
 7.713791018375160E-001  7.904321656528891E-001  8.099558401445250E-001  8.299617493960831E-001 
 8.504618046061792E-001  8.714682111799444E-001  8.929934759960925E-001  9.150504148532039E-001 
 9.376521601000585E-001  9.608121684545298E-001  9.845442290153622E-001  1.008862471472049E+000 
 1.033781374517401E+000  1.059315774467978E+000  1.085480874097335E+000  1.112292251687552E+000 
 1.139765870304240E+000  1.167918087300736E+000  1.196765664057074E+000  1.226325775959272E+000 
 1.256616022625467E+000  1.287654438384329E+000  1.319459503012423E+000  1.352050152736827E+000 
 1.385445791509418E+000  1.419666302559702E+000  1.454732060232938E+000  1.490663942120680E+000 
 1.527483341491062E+000  1.565212180025904E+000  1.603872920872524E+000  1.643488582018079E+000 
 1.684082749993925E+000  1.725679593918785E+000  1.768303879888575E+000  1.811980985721819E+000 
 1.856736916069159E+000  1.902598317896058E+000  1.949592496348093E+000
    </PP_RAB>
  </PP_MESH>
  <PP_LOCAL type="real" size="507" columns="4">
-2.960339256448600E+001 -2.960339293739400E+001 -2.960339329932400E+001 -2.960339365043600E+001 
-2.960339399089000E+001 -2.960339432083000E+001 -2.960339464039800E+001 -2.960339494971800E+001 
-2.960339524891400E+001 -2.960339553809400E+001 -2.960339581736000E+001 -2.960339608680400E+001 
-2.960339634650800E+001 -2.960339659654600E+001 -2.960339683697800E+001 -2.960339706785800E+001 
-2.960339728922800E+001 -2.960339750112000E+001 -2.960339770355600E+001 -2.960339789654600E+001 
-2.960339808009000E+001 -2.960339825417400E+001 -2.960339841877600E+001 -2.960339857386000E+001 
-2.960339871937600E+001 -2.960339885526600E+001 -2.960339898145400E+001 -2.960339909785400E+001 
-2.960339920436200E+001 -2.960339930086600E+001 -2.960339938723200E+001 -2.960339946331400E+001 
-2.960339952895000E+001 -2.960339958396200E+001 -2.960339962815400E+001 -2.960339966131200E+001 
-2.960339968320000E+001 -2.960339969357200E+001 -2.960339969215000E+001 -2.960339967864600E+001 
-2.960339965274200E+001 -2.960339961410200E+001 -2.960339956236600E+001 -2.960339949714400E+001 
-2.960339941802800E+001 -2.960339932457800E+001 -2.960339921633000E+001 -2.960339909278200E+001 
-2.960339895341400E+001 -2.960339879766200E+001 -2.960339862493600E+001 -2.960339843460800E+001 
-2.960339822601400E+001 -2.960339799845200E+001 -2.960339775117800E+001 -2.960339748340800E+001 
-2.960339719431200E+001 -2.960339688301400E+001 -2.960339654859400E+001 -2.960339619007200E+001 
-2.960339580642600E+001 -2.960339539657000E+001 -2.960339495936400E+001 -2.960339449360400E+001 
-2.960339399802400E+001 -2.960339347128800E+001 -2.960339291199600E+001 -2.960339231866600E+001 
-2.960339168974200E+001 -2.960339102358800E+001 -2.960339031848200E+001 -2.960338957261000E+001 
-2.960338878406600E+001 -2.960338795084800E+001 -2.960338707084400E+001 -2.960338614184200E+001 
-2.960338516150800E+001 -2.960338412739400E+001 -2.960338303692400E+001 -2.960338188739400E+001 
-2.960338067595600E+001 -2.960337939962200E+001 -2.960337805525200E+001 -2.960337663954200E+001 
-2.960337514902400E+001 -2.960337358005400E+001 -2.960337192880200E+001 -2.960337019124600E+001 
-2.960336836315800E+001 -2.960336644010000E+001 -2.960336441740600E+001 -2.960336229017800E+001 
-2.960336005326800E+001 -2.960335770127000E+001 -2.960335522850800E+001 -2.960335262901400E+001 
-2.960334989652800E+001 -2.960334702446600E+001 -2.960334400592200E+001 -2.960334083363800E+001 
-2.960333749999000E+001 -2.960333399697400E+001 -2.960333031618400E+001 -2.960332644879000E+001 
-2.960332238552000E+001 -2.960331811663800E+001 -2.960331363191600E+001 -2.960330892061800E+001 
-2.960330397146400E+001 -2.960329877261400E+001 -2.960329331163200E+001 -2.960328757545800E+001 
-2.960328155037800E+001 -2.960327522199000E+001 -2.960326857517200E+001 -2.960326159404400E+001 
-2.960325426193000E+001 -2.960324656131800E+001 -2.960323847382200E+001 -2.960322998013200E+001 
-2.960322105997200E+001 -2.960321169205200E+001 -2.960320185401000E+001 -2.960319152237600E+001 