<UPF version="2.0.1">
  <PP_INFO>
    Generated using FHI98PP, converted with fhi2upf.x v.5.0.1
    Author: Abinit web site
    Generation date: 10-Jul-2012, PG
    Pseudopotential type: SL
    Element: As
    Functional: SLA-PW

    Suggested minimum cutoff for wavefunctions:   0. Ry
    Suggested minimum cutoff for charge density:   0. Ry
    The Pseudo was generated with a Non-Relativistic Calculation
    L component and cutoff radius for Local Potential:  2   0.0000

    Valence configuration: 
    nl pn  l   occ       Rcut    Rcut US       E pseu
    4s  4  0  2.00      0.000      0.000     0.000000
    4p  4  1  3.00      0.000      0.000     0.000000
    4d  4  2  0.00      0.000      0.000     0.000000
    4f  4  3  0.00      0.000      0.000     0.000000

    Generation configuration: not available.
    Comment:
    arsenic, fhi98PP : Trouiller-Martins-type, LDA Ceperley/Alder Perdew/Wang (1992)
  </PP_INFO>
  <!--                               -->
  <!-- END OF HUMAN READABLE SECTION -->
  <!--                               -->
  <PP_HEADER generated="Generated using FHI98PP, converted with fhi2upf.x v.5.0.1"
             author="Abinit web site"
             date="10-Jul-2012, PG"
             comment="arsenic, fhi98PP : Trouiller-Martins-type, LDA Ceperley/Alder Perdew/Wang (1992)"
             element="As"
             pseudo_type="SL"
             relativistic="no"
             is_ultrasoft="F"
             is_paw="F"
             is_coulomb="F"
             has_so="F"
             has_wfc="F"
             has_gipaw="F"
             paw_as_gipaw="F"
             core_correction="F"
             functional="SLA-PW"
             z_valence="5.000000000000000E+000"
             total_psenergy="0.000000000000000E+000"
             wfc_cutoff="0.000000000000000E+000"
             rho_cutoff="0.000000000000000E+000"
             l_max="3"
             l_max_rho="0"
             l_local="2"
             mesh_size="531"
             number_of_wfc="4"
             number_of_proj="3"/>
  <PP_MESH dx="2.439988682353512E-002" mesh="531" xmin="-5.075173815233824E+000" rmax="7.827737744830399E+001"
zmesh="3.300000000000000E+001">
    <PP_R type="real" size="531" columns="4">
 1.893939393939400E-004  1.940719696969700E-004  1.988655473484800E-004  2.037775263679900E-004 
 2.088108312692800E-004  2.139684588016300E-004  2.192534797340300E-004  2.246690406834600E-004 
 2.302183659883500E-004  2.359047596282600E-004  2.417316071910800E-004  2.477023778887000E-004 
 2.538206266225500E-004  2.600899961001200E-004  2.665142190038000E-004  2.730971202131900E-004 
 2.798426190824600E-004  2.867547317737900E-004  2.938375736486000E-004  3.010953617177300E-004 
 3.085324171521500E-004  3.161531678558100E-004  3.239621511018500E-004  3.319640162340700E-004 
 3.401635274350500E-004  3.485655665626900E-004  3.571751360567900E-004  3.659973619173900E-004 
 3.750374967567500E-004  3.843009229266400E-004  3.937931557229300E-004  4.035198466692900E-004 
 4.134867868820200E-004  4.236999105180100E-004  4.341652983078000E-004  4.448891811760000E-004 
 4.558779439510500E-004  4.671381291666400E-004  4.786764409570600E-004  4.904997490487001E-004 
 5.026150928502000E-004  5.150296856436000E-004  5.277509188790000E-004  5.407863665753100E-004 
 5.541437898297200E-004  5.678311414385100E-004  5.818565706320401E-004  5.962284279266600E-004 
 6.109552700964401E-004  6.260458652678300E-004  6.415091981399400E-004  6.573544753340000E-004 
 6.735911308747500E-004  6.902288318073500E-004  7.072774839530000E-004  7.247472378066301E-004 
 7.426484945804600E-004  7.609919123966000E-004  7.797884126327900E-004  7.990491864248201E-004 
 8.187857013295100E-004  8.390097081523500E-004  8.597332479437200E-004  8.809686591679300E-004 
 9.027285850493699E-004  9.250259811000900E-004  9.478741228332699E-004  9.712866136672500E-004 
 9.952773930248301E-004  1.019860744632500E-003  1.045051305025000E-003  1.070864072259100E-003 
 1.097314414843900E-003  1.124418080890500E-003  1.152191207488500E-003  1.180650330313500E-003 
 1.209812393472200E-003  1.239694759591000E-003  1.270315220152900E-003  1.301692006090700E-003 
 1.333843798641100E-003  1.366789740467500E-003  1.400549447057100E-003  1.435143018399400E-003 
 1.470591050953900E-003  1.506914649912400E-003  1.544135441765300E-003  1.582275587176900E-003 
 1.621357794180100E-003  1.661405331696400E-003  1.702442043389300E-003  1.744492361861000E-003 
 1.787581323199000E-003  1.831734581882000E-003  1.876978426054500E-003  1.923339793178000E-003 
 1.970846286069500E-003  2.019526189335400E-003  2.069408486212000E-003  2.120522875821400E-003 
 2.172899790854200E-003  2.226570415688300E-003  2.281566704955800E-003  2.337921402568200E-003 
 2.395668061211700E-003  2.454841062323600E-003  2.515475636563000E-003  2.577607884786100E-003 
 2.641274799540300E-003  2.706514287089000E-003  2.773365189980100E-003  2.841867310172600E-003 
 2.912061432733800E-003  2.983989350122400E-003  3.057693887070400E-003  3.133218926081000E-003 
 3.210609433555200E-003  3.289911486564000E-003  3.371172300282200E-003  3.454440256099100E-003 
 3.539764930424800E-003  3.627197124206300E-003  3.716788893174200E-003  3.808593578835600E-003 
 3.902665840232800E-003  3.999061686486600E-003  4.097838510142800E-003  4.199055121343300E-003 
 4.302771782840500E-003  4.409050245876600E-003  4.517953786949800E-003  4.629547245487500E-003 
 4.743897062451000E-003  4.861071319893500E-003  4.981139781494900E-003  5.104173934097800E-003 
 5.230247030270100E-003  5.359434131917700E-003  5.491812154976100E-003  5.627459915204000E-003 
 5.766458175109500E-003  5.908889692034700E-003  6.054839267428000E-003  6.204393797333500E-003 
 6.357642324127600E-003  6.514676089533600E-003  6.675588588945000E-003  6.840475627092000E-003 
 7.009435375081100E-003  7.182568428845700E-003  7.359977869038100E-003  7.541769322403400E-003 
 7.728051024666700E-003  7.918933884976000E-003  8.114531551934900E-003  8.314960481267701E-003 
 8.520340005154999E-003  8.730792403282400E-003  8.946442975643400E-003  9.167420117141801E-003 
 9.393855394035200E-003  9.625883622267900E-003  9.863642947737899E-003  1.010727492854700E-002 
 1.035692461928200E-002  1.061274065737800E-002  1.087487535161600E-002  1.114348477280100E-002 
 1.141872884668900E-002  1.170077144920200E-002  1.198978050399700E-002  1.228592808244600E-002 
 1.258939050608200E-002  1.290034845158300E-002  1.321898705833700E-002  1.354549603867800E-002 
 1.388006979083300E-002  1.422290751466700E-002  1.457421333027900E-002  1.493419639953700E-002 
 1.530307105060500E-002  1.568105690555500E-002  1.606837901112200E-002  1.646526797269700E-002 
 1.687196009162300E-002  1.728869750588600E-002  1.771572833428100E-002  1.815330682413800E-002 
 1.860169350269400E-002  1.906115533221100E-002  1.953196586891600E-002  2.001440542587900E-002 
 2.050876123989800E-002  2.101532764252300E-002  2.153440623529400E-002  2.206630606930500E-002 
 2.261134382921700E-002  2.316984402179900E-002  2.374213916913700E-002  2.432857000661500E-002 
 2.492948568577800E-002  2.554524398221700E-002  2.617621150857800E-002  2.682276393284000E-002 
 2.748528620198100E-002  2.816417277117000E-002  2.885982783861800E-002  2.957266558623100E-002 
 3.030311042621100E-002  3.105159725373900E-002  3.181857170590600E-002  3.260449042704200E-002 
 3.340982134059000E-002  3.423504392770200E-002  3.508064951271700E-002  3.594714155568100E-002 
 3.683503595210600E-002  3.774486134012300E-002  3.867715941522400E-002  3.963248525278000E-002 
 4.061140763852400E-002  4.161450940719500E-002  4.264238778955300E-002  4.369565476795500E-002 
 4.477493744072400E-002  4.588087839550900E-002  4.701413609187900E-002  4.817538525334800E-002 
 4.936531726910600E-002  5.058464060565300E-002  5.183408122861200E-002  5.311438303495900E-002 
 5.442630829592200E-002  5.577063811083200E-002  5.714817287216900E-002  5.855973274211200E-002 
 6.000615814084200E-002  6.148831024692100E-002  6.300707151002000E-002  6.456334617631700E-002 
 6.615806082687201E-002  6.779216492929600E-002  6.946663140304900E-002  7.118245719870500E-002 
 7.294066389151301E-002  7.474229828963300E-002  7.658843305738700E-002  7.848016735390501E-002 
 8.041862748754600E-002  8.240496758648801E-002  8.444037028587500E-002  8.652604743193600E-002 
 8.866324080350500E-002  9.085322285135100E-002  9.309729745577899E-002  9.539680070293700E-002 
 9.775310168030001E-002  1.001676032918000E-001  1.026417430931100E-001  1.051769941475100E-001 
 1.077748659029500E-001  1.104369050907600E-001  1.131646966465000E-001  1.159598646536700E-001 
 1.188240733106100E-001  1.217590279213800E-001  1.247664759110400E-001  1.278482078660500E-001 
 1.310060586003400E-001  1.342419082477700E-001  1.375576833814900E-001  1.409553581610100E-001 
 1.444369555075800E-001  1.480045483086200E-001  1.516602606518500E-001  1.554062690899500E-001 
 1.592448039364700E-001  1.631781505937000E-001  1.672086509133600E-001  1.713387045909200E-001 
 1.755707705943200E-001  1.799073686280000E-001  1.843510806331100E-001  1.889045523247500E-001 
 1.935704947671700E-001  1.983516859879200E-001  2.032509726318200E-001  2.082712716558200E-001 
 2.134155720657200E-001  2.186869366957500E-001  2.240885040321300E-001  2.296234900817300E-001 
 2.352951902867400E-001  2.411069814868300E-001  2.470623239295500E-001  2.531647633306100E-001 
 2.594179329848800E-001  2.658255559296000E-001  2.723914471610700E-001  2.791195159059400E-001 
 2.860137679488200E-001  2.930783080171600E-001  3.003173422251800E-001  3.077351805781400E-001 
 3.153362395384200E-001  3.231250446550200E-001  3.311062332580000E-001  3.392845572194700E-001 
 3.476648857827900E-001  3.562522084616300E-001  3.650516380106300E-001  3.740684134694900E-001 
 3.833079032821900E-001  3.927756084932600E-001  4.024771660230400E-001  4.124183520238100E-001 
 4.226050853188000E-001  4.330434309261700E-001  4.437396036700500E-001  4.546999718807000E-001 
 4.659310611861500E-001  4.774395583974500E-001  4.892323154898700E-001  5.013163536824700E-001 
 5.136988676184300E-001  5.263872296486000E-001  5.393889942209200E-001  5.527119023781800E-001 
 5.663638863669200E-001  5.803530743601800E-001  5.946877952968800E-001  6.093765838407100E-001 
 6.244281854615800E-001  6.398515616424800E-001  6.556558952150500E-001  6.718505958268600E-001 
 6.884453055437800E-001  7.054499045907100E-001  7.228745172341100E-001  7.407295178097900E-001 
 7.590255368996900E-001  7.777734676611100E-001  7.969844723123400E-001  8.166699887784600E-001 
 8.368417375012800E-001  8.575117284175700E-001  8.786922681094800E-001  9.003959671317801E-001 
 9.226357475199400E-001  9.454248504836800E-001  9.687768442906300E-001  9.927056323446100E-001 
 1.017225461463500E+000  1.042350930361700E+000  1.068096998341600E+000  1.094478994200600E+000 
 1.121512625357400E+000  1.149213987203700E+000  1.177599572687700E+000  1.206686282133000E+000 
 1.236491433301700E+000  1.267032771704300E+000  1.298328481165400E+000  1.330397194650200E+000 
 1.363258005358000E+000  1.396930478090400E+000  1.431434660899200E+000  1.466791097023400E+000 
 1.503020837119900E+000  1.540145451796700E+000  1.578187044456100E+000  1.617168264454200E+000 
 1.657112320586200E+000  1.698042994904700E+000  1.739984656878800E+000  1.782962277903700E+000 
 1.827001446168000E+000  1.872128381888300E+000  1.918369952920900E+000  1.965753690758100E+000 
 2.014307806919800E+000  2.064061209750700E+000  2.115043521631600E+000  2.167285096615900E+000 
 2.220817038502300E+000  2.275671219353300E+000  2.331880298471300E+000  2.389477741843600E+000 
 2.448497842067100E+000  2.508975738766200E+000  2.570947439513700E+000  2.634449841269700E+000 
 2.699520752349000E+000  2.766198914932000E+000  2.834524028130900E+000  2.904536771625700E+000 
 2.976278829884900E+000  3.049792916983000E+000  3.125122802032500E+000  3.202313335242700E+000 
 3.281410474623200E+000  3.362461313346400E+000  3.445514107786000E+000  3.530618306248400E+000 
 3.617824578412700E+000  3.707184845499500E+000  3.798752311183300E+000  3.892581493269500E+000 
 3.988728256153300E+000  4.087249844080300E+000  4.188204915229100E+000  4.291653576635200E+000 
 4.397657419978100E+000  4.506279558251600E+000  4.617584663340400E+000  4.731639004524900E+000 
 4.848510487936700E+000  4.968268696988700E+000  5.090984933804300E+000  5.216732261669300E+000 
 5.345585548532500E+000  5.477621511581300E+000  5.612918762917300E+000  5.751557856361400E+000 
 5.893621335413500E+000  6.039193782398200E+000  6.188361868823500E+000  6.341214406983400E+000 
 6.497842402835900E+000  6.658339110185900E+000  6.822800086207500E+000  6.991323248336900E+000 
 7.164008932570800E+000  7.340959953205300E+000  7.522281664049400E+000  7.708082021151500E+000 
 7.898471647073900E+000  8.093563896756599E+000  8.293474925006500E+000  8.498323755654200E+000 
 8.708232352418801E+000  8.923325691523599E+000  9.143731836104200E+000  9.369582012456000E+000 
 9.601010688163599E+000  9.838155652161300E+000  1.008115809677000E+001  1.033016270176000E+001 
 1.058531772049300E+001  1.084677506819000E+001  1.111469041237400E+001  1.138922326555900E+001 
 1.167053708021900E+001  1.195879934610000E+001  1.225418168994900E+001  1.255685997769100E+001 
 1.286701441914000E+001  1.318482967529200E+001  1.351049496827200E+001  1.384420419398800E+001 
 1.418615603758000E+001  1.453655409170800E+001  1.489560697777300E+001  1.526352847012400E+001 
 1.564053762333600E+001  1.602685890263300E+001  1.642272231752800E+001  1.682836355877100E+001 
 1.724402413867200E+001  1.766995153489800E+001  1.810639933780900E+001  1.855362740145300E+001 
 1.901190199826900E+001  1.948149597762700E+001  1.996268892827400E+001  2.045576734480200E+001 
 2.096102479821900E+001  2.147876211073500E+001  2.200928753487000E+001  2.255291693698100E+001 
 2.310997398532500E+001  2.368079034276200E+001  2.426570586422900E+001  2.486506879907500E+001 
 2.547923599841200E+001  2.610857312757300E+001  2.675345488382400E+001  2.741426521945400E+001 
 2.809139757037500E+001  2.878525509036300E+001  2.949625089109500E+001  3.022480828810500E+001 
 3.097136105282100E+001  3.173635367082600E+001  3.252024160649500E+001  3.332349157417600E+001 
 3.414658181605800E+001  3.499000238691500E+001  3.585425544587100E+001  3.673985555538400E+001 
 3.764732998760200E+001  3.857721903829600E+001  3.953007634854200E+001  4.050646923435100E+001 
 4.150697902444000E+001  4.253220140634300E+001  4.358274678108000E+001  4.465924062657300E+001 
 4.576232387004900E+001  4.689265326963900E+001  4.805090180539900E+001  4.923775907999300E+001 
 5.045393172926800E+001  5.170014384298100E+001  5.297713739590300E+001  5.428567268958200E+001 
 5.562652880501400E+001  5.700050406649800E+001  5.840841651694100E+001  5.985110440490900E+001 
 6.132942668371100E+001  6.284426352279800E+001  6.439651683181100E+001  6.598711079755699E+001 
 6.761699243425700E+001  6.928713214738301E+001  7.099852431142300E+001  7.275218786191500E+001 
 7.454916690210500E+001  7.639053132458700E+001  7.827737744830399E+001
    </PP_R>
    <PP_RAB type="real" size="531" columns="4">
 4.621190686275606E-006  4.735334096226605E-006  4.852296848403276E-006  4.972148580558900E-006 
 5.094960650498721E-006  5.220806178566009E-006  5.349760091176583E-006  5.481899165428632E-006 
 5.617302074814927E-006  5.756049436062801E-006  5.898223857133600E-006  6.043909986404809E-006 
 6.193194563068985E-006  6.346166468776619E-006  6.502916780555573E-006  6.663538825035202E-006 
 6.828128234013673E-006  6.996783001393647E-006  7.169603541528006E-006  7.346692749003982E-006 
 7.528156059904186E-006  7.714101514583866E-006  7.904639821994124E-006  8.099884425597484E-006 
 8.299951570909705E-006  8.504960374711035E-006  8.715032895966435E-006  8.930294208496740E-006 
 9.150872475446619E-006  9.376899025590109E-006  9.608508431522234E-006  9.845838589780922E-006 
 1.008903080294848E-005  1.033822986378140E-005  1.059358414141668E-005  1.085524566970961E-005 
 1.112337023775151E-005  1.139811748262395E-005  1.167965098444486E-005  1.196813836376066E-005 
 1.226375138134548E-005  1.256666604046471E-005  1.287706269166427E-005  1.319512614014834E-005 
 1.352104575581000E-005  1.385501558597841E-005  1.419723447095205E-005  1.454790616238477E-005 
 1.490723944459547E-005  1.527544825887717E-005  1.565275183087130E-005  1.603937480109391E-005 
 1.643554735868093E-005  1.684150537844020E-005  1.725749056128788E-005  1.768375057815147E-005 
 1.812053921743196E-005  1.856811653610260E-005  1.902674901454418E-005  1.949670971520343E-005 
 1.997827844516887E-005  2.047174192276457E-005  2.097739394825703E-005  2.149553557877898E-005 
 2.202647530757463E-005  2.257052924767173E-005  2.312802132008941E-005  2.369928344669558E-005 
 2.428465574782894E-005  2.488448674479926E-005  2.549913356739768E-005  2.612896216651197E-005 
 2.677434753202483E-005  2.743567391606476E-005  2.811333506179167E-005  2.880773443781876E-005 
 2.951928547843182E-005  3.024841182974998E-005  3.099554760194486E-005  3.176113762771347E-005 
 3.254563772711701E-005  3.334951497897594E-005  3.417324799895793E-005  3.501732722453194E-005 
 3.588225520697873E-005  3.676854691058961E-005  3.767673001928273E-005  3.860734525075894E-005 
 3.956094667845099E-005  4.053810206140999E-005  4.153939318232679E-005  4.256541619392987E-005 
 4.361678197392076E-005  4.469411648867622E-005  4.579806116594688E-005  4.692927327674465E-005 
 4.808842632668033E-005  4.927621045694892E-005  5.049333285523594E-005  5.174051817675938E-005 
 5.301850897572562E-005  5.432806614742607E-005  5.566996938126747E-005  5.704501762498457E-005 
 5.845402956032328E-005  5.989784409046256E-005  6.137732083949716E-005  6.289334066423259E-005 
 6.444680617863874E-005  6.603864229125244E-005  6.766979675584642E-005  6.934124073571562E-005 
 7.105396938188624E-005  7.280900242562069E-005  7.460738478553294E-005  7.645018718973466E-005 
 7.833850681332108E-005  8.027346793160978E-005  8.225622258952223E-005  8.428795128748172E-005 
 8.636986368428380E-005  8.850319931728578E-005  9.068922834042285E-005  9.292925228043122E-005 
 9.522460481175692E-005  9.757665255060854E-005  9.998679586860809E-005  1.024564697265621E-004 
 1.049871445288086E-004  1.075803269986687E-004  1.102375610755370E-004  1.129604288341038E-004 
 1.157505514263051E-004  1.186095900465339E-004  1.215392469206840E-004  1.245412663196243E-004 
 1.276174355977211E-004  1.307695862569831E-004  1.339995950375314E-004  1.373093850349581E-004 
 1.407009268453207E-004  1.441762397384000E-004  1.477373928599395E-004  1.513865064635807E-004 
 1.551257531732302E-004  1.589573592766102E-004  1.628836060507405E-004  1.669068311201952E-004 
 1.710294298488623E-004  1.752538567661315E-004  1.795826270282528E-004  1.840183179158521E-004 
 1.885635703683721E-004  1.932210905564717E-004  1.979936514932164E-004  2.028840946850990E-004 
 2.078953318238206E-004  2.130303465198708E-004  2.182921960789097E-004  2.236840133220590E-004 
 2.292090084511138E-004  2.348704709598571E-004  2.406717715925651E-004  2.466163643509009E-004 
 2.527077885503654E-004  2.589496709275529E-004  2.653457277994821E-004  2.718997672761314E-004 
 2.786156915278473E-004  2.854974991085798E-004  2.925492873365547E-004  2.997752547337743E-004 
 3.071797035256883E-004  3.147670422027917E-004  3.225417881451983E-004  3.305085703123865E-004 
 3.386721319990940E-004  3.470373336594820E-004  3.556091558008645E-004  3.643927019491485E-004 
 3.733932016872787E-004  3.826160137689559E-004  3.920666293090440E-004  4.017506750529844E-004 
 4.116739167268024E-004  4.218422624699523E-004  4.322617663529507E-004  4.429386319818750E-004 
 4.538792161918222E-004  4.650900328317714E-004  4.765777566427012E-004  4.883492272317949E-004 
 5.004114531444151E-004  5.127716160370704E-004  5.254370749532026E-004  5.384153707045282E-004 
 5.517142303609340E-004  5.653415718508574E-004  5.793055086755629E-004  5.936143547398571E-004 
 6.082766293019220E-004  6.233010620456864E-004  6.386965982782207E-004  6.544724042556958E-004 
 6.706378726408079E-004  6.872026280950375E-004  7.041765330089874E-004  7.215696933742882E-004 
 7.393924648006355E-004  7.576554586812256E-004  7.763695485106432E-004  7.955458763588591E-004 
 8.151958595049245E-004  8.353311972346821E-004  8.559638778063973E-004  8.771061855882127E-004 
 8.987707083722336E-004  9.209703448690273E-004  9.437183123872913E-004  9.670281547032567E-004 
 9.909137501244354E-004  1.015389319752496E-003  1.040469435950389E-003  1.066169031018365E-003 
 1.092503406084531E-003  1.119488240214797E-003  1.147139599748125E-003  1.175473947861894E-003 
 1.204508154374090E-003  1.234259505787132E-003  1.264745715580059E-003  1.295984934754894E-003 
 1.327995762643328E-003  1.360797257980635E-003  1.394408950252744E-003  1.428850851323997E-003 
 1.464143467351696E-003  1.500307810995287E-003  1.537365413926872E-003  1.575338339650854E-003 
 1.614249196640229E-003  1.654121151797249E-003  1.694977944246626E-003  1.736843899469535E-003 
 1.779743943786432E-003  1.823703619197948E-003  1.868749098592139E-003  1.914907201327378E-003 
 1.962205409200153E-003  2.010671882807387E-003  2.060335478312748E-003  2.111225764627070E-003 
 2.163373041013363E-003  2.216808355126379E-003  2.271563521497992E-003  2.327671140478999E-003 
 2.385164617648841E-003  2.444078183704684E-003  2.504446914842252E-003  2.566306753638860E-003 
 2.629694530453654E-003  2.694647985356034E-003  2.761205790594285E-003  2.829407573621999E-003 
 2.899293940690324E-003  2.970906501025325E-003  3.044287891600697E-003  3.119481802523413E-003 
 3.196533003045706E-003  3.275487368220974E-003  3.356391906216034E-003  3.439294786299502E-003 
 3.524245367520930E-003  3.611294228098764E-003  3.700493195532977E-003  3.791895377462625E-003 
 3.885555193285908E-003  3.981528406560050E-003  4.079872158201977E-003  4.180645000509565E-003 
 4.283906932022256E-003  4.389719433243213E-003  4.498145503244282E-003  4.609249697174468E-003 
 4.723098164694645E-003  4.839758689362625E-003  4.959300728989842E-003  5.081795456995746E-003 
 5.207315804783572E-003  5.335936505161890E-003  5.467734136839266E-003  5.602787170019352E-003 
 5.741176013118616E-003  5.882983060642830E-003  6.028292742240593E-003  6.177191572973939E-003 
 6.329768204826490E-003  6.486113479485546E-003  6.646320482429055E-003  6.810484598344846E-003 
 6.978703567924045E-003  7.151077546051870E-003  7.327709161439257E-003  7.508703577726759E-003 
 7.694168556096608E-003  7.884214519432220E-003  8.078954618062220E-003  8.278504797128293E-003 
 8.482983865617339E-003  8.692513567098215E-003  8.907218652205484E-003  9.127226952914897E-003 
 9.352669458651982E-003  9.583680394280683E-003  9.820397300019332E-003  1.006296111332983E-002 
 1.031151625282912E-002  1.056621070427390E-002  1.082719610866955E-002  1.109462785255368E-002 
 1.136866516051168E-002  1.164947118997637E-002  1.193721312836886E-002  1.223206229263957E-002 
 1.253419423126784E-002  1.284378882878003E-002  1.316103041285089E-002  1.348610786404839E-002 
 1.381921472829035E-002  1.416054933207905E-002  1.451031490058149E-002  1.486871967862579E-002 
 1.523597705468795E-002  1.561230568793872E-002  1.599792963843082E-002  1.639307850050002E-002 
 1.679798753946229E-002  1.721289783168697E-002  1.763805640812987E-002  1.807371640141062E-002 
 1.852013719652542E-002  1.897758458527954E-002  1.944633092453596E-002  1.992665529837212E-002 
 2.041884368424172E-002  2.092318912324269E-002  2.143999189458669E-002  2.196955969438288E-002 
 2.251220781883426E-002  2.306825935195940E-002  2.363804535795288E-002  2.422190507829435E-002 
 2.482018613372768E-002  2.543324473123202E-002  2.606144587609262E-002  2.670516358923119E-002 
 2.736478112988630E-002  2.804069122379382E-002  2.873329629702320E-002  2.944300871555757E-002 
 3.017025103083221E-002  3.091545623129493E-002  3.167906800020800E-002  3.246154097981351E-002 
 3.326334104201344E-002  3.408494556575257E-002  3.492684372122585E-002  3.578953676113988E-002 
 3.667353831914058E-002  3.757937471562185E-002  3.850758527109823E-002  3.945872262729520E-002 
 4.043335307618893E-002  4.143205689717130E-002  4.245542870253031E-002  4.350407779148265E-002 
 4.457862851293419E-002  4.567972063720246E-002  4.680800973694036E-002  4.796416757744409E-002 
 4.914888251660635E-002  5.036285991476607E-002  5.160682255466220E-002  5.288151107176234E-002 
 5.418768439523455E-002  5.552612019979668E-002  5.689761536873102E-002  5.830298646834012E-002 
 5.974307023410722E-002  6.121872406889070E-002  6.273082655339168E-002  6.428027796926075E-002 
 6.586800083509999E-002  6.749494045572646E-002  6.916206548498484E-002  7.087036850246316E-002 
 7.262086660447510E-002  7.441460200960424E-002  7.625264267924196E-002  7.813608295341916E-002 
 8.006604420236875E-002  8.204367549416743E-002  8.407015427887199E-002  8.614668708956222E-002 
 8.827451026067355E-002  9.045489066411233E-002  9.268912646351499E-002  9.497854788716315E-002 
 9.732451801997713E-002  9.972843361507089E-002  1.021917259253636E-001  1.047158615557186E-001 
 1.073023433361451E-001  1.099527112165489E-001  1.126685431835973E-001  1.154514562002319E-001 
 1.183031071683785E-001  1.212251939154366E-001  1.242194562051474E-001  1.272876767734153E-001 
 1.304316823897179E-001  1.336533449447451E-001  1.369545825648789E-001  1.403373607542324E-001 
 1.438036935648613E-001  1.473556447959131E-001  1.509953292223737E-001  1.547249138541653E-001 
 1.585466192263635E-001  1.624627207212535E-001  1.664755499230686E-001  1.705874960061703E-001 
 1.748010071575222E-001  1.791185920343130E-001  1.835428212575588E-001  1.880763289426225E-001 
 1.927218142675042E-001  1.974820430799109E-001  2.023598495439850E-001  2.073581378277224E-001 
 2.124798838320657E-001  2.177281369627191E-001  2.231060219456975E-001  2.286167406877568E-001 
 2.342635741827429E-001  2.400498844650581E-001  2.459791166113527E-001  2.520548007916478E-001 
 2.582805543711900E-001  2.646600840641785E-001  2.711971881405565E-001  2.778957586876127E-001 
 2.847597839272136E-001  2.917933505902058E-001  2.990006463497920E-001  3.063859623146382E-001 
 3.139536955838105E-001  3.217083518647121E-001  3.296545481557775E-001  3.377970154952175E-001 
 3.461406017779615E-001  3.546902746418716E-001  3.634511244255212E-001  3.724283671988318E-001 
 3.816273478686414E-001  3.910535433610114E-001  4.007125658820276E-001  4.106101662593151E-001 
 4.207522373659045E-001  4.311448176288619E-001  4.417940946242708E-001  4.527064087614932E-001 
 4.638882570579048E-001  4.753462970072534E-001  4.870873505433232E-001  4.991184081017343E-001 
 5.114466327818568E-001  5.240793646115683E-001  5.370241249174703E-001  5.502886208029247E-001 
 5.638807497367708E-001  5.778086042552563E-001  5.920804767803801E-001  6.067048645568444E-001 
 6.216904747113947E-001  6.370462294367716E-001  6.527812713038585E-001  6.689049687050528E-001 
 6.854269214320795E-001  7.023569663914454E-001  7.197051834613150E-001  7.374819014928082E-001 
 7.556977044596759E-001  7.743634377598377E-001  7.934902146724959E-001  8.130894229749207E-001 
 8.331727317223976E-001  8.537520981959498E-001  8.748397750213701E-001  8.964483174643976E-001 
 9.185905909057687E-001  9.412797785011467E-001  9.645293890301274E-001  9.883532649391717E-001 
 1.012765590583182E+000  1.037780900670570E+000  1.063414088917142E+000  1.089680416913403E+000 
 1.116595523211155E+000  1.144175432634466E+000  1.172436565820535E+000  1.201395748996318E+000 
 1.231070223996507E+000  1.261477658529222E+000  1.292636156694903E+000  1.324564269765272E+000 
 1.357281007228458E+000  1.390805848107005E+000  1.425158752555260E+000  1.460360173743364E+000 
 1.496431070034843E+000  1.533392917464688E+000  1.571267722526063E+000  1.610078035272463E+000 
 1.649846962743701E+000  1.690598182723467E+000  1.732355957836728E+000  1.775145149995292E+000 
 1.818991235200192E+000  1.863920318709637E+000  1.909959150581758E+000
    </PP_RAB>
  </PP_MESH>
  <PP_LOCAL type="real" size="531" columns="4">
-1.650120452834740E+001 -1.650120467461660E+001 -1.650120481727520E+001 -1.650120495640580E+001 
-1.650120509208900E+001 -1.650120522440360E+001 -1.650120535342540E+001 -1.650120547922880E+001 
-1.650120560188600E+001 -1.650120572146700E+001 -1.650120583804020E+001 -1.650120595167160E+001 
-1.650120606242560E+001 -1.650120617036480E+001 -1.650120627554960E+001 -1.650120637803880E+001 
-1.650120647788940E+001 -1.650120657515660E+001 -1.650120666989380E+001 -1.650120676215280E+001 
-1.650120685198340E+001 -1.650120693943400E+001 -1.650120702455140E+001 -1.650120710738060E+001 
-1.650120718796460E+001 -1.650120726634520E+001 -1.650120734256280E+001 -1.650120741665540E+001 
-1.650120748866000E+001 -1.650120755861180E+001 -1.650120762654460E+001 -1.650120769249020E+001 
-1.650120775647900E+001 -1.650120781854000E+001 -1.650120787870040E+001 -1.650120793698560E+001 
-1.650120799341960E+001 -1.650120804802460E+001 -1.650120810082160E+001 -1.650120815182920E+001 
-1.650120820106480E+001 -1.650120824854400E+001 -1.650120829428080E+001 -1.650120833828720E+001 
-1.650120838057340E+001 -1.650120842114800E+001 -1.650120846001760E+001 -1.650120849718700E+001 
-1.650120853265900E+001 -1.650120856643420E+001 -1.650120859851160E+001 -1.650120862888820E+001 
-1.650120865755800E+001 -1.650120868451400E+001 -1.650120870974580E+001 -1.650120873324180E+001 
-1.650120875498700E+001 -1.650120877496460E+001 -1.650120879315500E+001 -1.650120880953600E+001 
-1.650120882408240E+001 -1.650120883676660E+001 -1.650120884755800E+001 -1.650120885642280E+001 
-1.650120886332400E+001 -1.650120886822160E+001 -1.650120887107160E+001 -1.650120887182740E+001 
-1.650120887043760E+001 -1.650120886684800E+001 -1.650120886099980E+001 -1.650120885283020E+001 
-1.650120884227180E+001 -1.650120882925280E+001 -1.650120881369720E+001 -1.650120879552320E+001 