<UPF version="2.0.1">
  <PP_INFO>
    Generated using FHI98PP, converted with fhi2upf.x v.5.0.1
    Author: Abinit web site
    Generation date: 10-Jul-2012, PG
    Pseudopotential type: SL
    Element: At
    Functional: SLA-PW

    Suggested minimum cutoff for wavefunctions:   0. Ry
    Suggested minimum cutoff for charge density:   0. Ry
    The Pseudo was generated with a Non-Relativistic Calculation
    L component and cutoff radius for Local Potential:  0   0.0000

    Valence configuration: 
    nl pn  l   occ       Rcut    Rcut US       E pseu
    6s  6  0  2.00      0.000      0.000     0.000000
    6p  6  1  5.00      0.000      0.000     0.000000
    6d  6  2  0.00      0.000      0.000     0.000000
    5f  5  3  0.00      0.000      0.000     0.000000

    Generation configuration: not available.
    Comment:
    astatine, fhi98PP : Trouiller-Martins-type, LDA Ceperley/Alder Perdew/Wang (1992
  </PP_INFO>
  <!--                               -->
  <!-- END OF HUMAN READABLE SECTION -->
  <!--                               -->
  <PP_HEADER generated="Generated using FHI98PP, converted with fhi2upf.x v.5.0.1"
             author="Abinit web site"
             date="10-Jul-2012, PG"
             comment="astatine, fhi98PP : Trouiller-Martins-type, LDA Ceperley/Alder Perdew/Wang (1992"
             element="At"
             pseudo_type="SL"
             relativistic="no"
             is_ultrasoft="F"
             is_paw="F"
             is_coulomb="F"
             has_so="F"
             has_wfc="F"
             has_gipaw="F"
             paw_as_gipaw="F"
             core_correction="T"
             functional="SLA-PW"
             z_valence="7.000000000000000E+000"
             total_psenergy="0.000000000000000E+000"
             wfc_cutoff="0.000000000000000E+000"
             rho_cutoff="0.000000000000000E+000"
             l_max="3"
             l_max_rho="0"
             l_local="0"
             mesh_size="569"
             number_of_wfc="4"
             number_of_proj="3"/>
  <PP_MESH dx="2.439988682353512E-002" mesh="569" xmin="-5.075173815233826E+000" rmax="7.680814153027499E+001"
zmesh="8.500000000000000E+001">
    <PP_R type="real" size="569" columns="4">
 7.352941176470600E-005  7.534558823529400E-005  7.720662426470600E-005  7.911362788404401E-005 
 8.106773449277999E-005  8.307010753475201E-005  8.512193919086000E-005  8.722445108887399E-005 
 8.937889503076901E-005  9.158655373802900E-005  9.384874161535899E-005  9.616680553325800E-005 
 9.854212562992999E-005  1.009761161329900E-004  1.034702262014700E-004  1.060259407886500E-004 
 1.086447815261300E-004  1.113283076298300E-004  1.140781168282800E-004  1.168958463139400E-004 
 1.197831737178900E-004  1.227418181087300E-004  1.257735410160100E-004  1.288801474791100E-004 
 1.320634871218400E-004  1.353254552537500E-004  1.386679939985200E-004  1.420930934502800E-004 
 1.456027928585000E-004  1.491991818421100E-004  1.528844016336100E-004  1.566606463539600E-004 
 1.605301643189000E-004  1.644952593775800E-004  1.685582922842100E-004  1.727216821036300E-004 
 1.769879076515800E-004  1.813595089705800E-004  1.858390888421500E-004  1.904293143365500E-004 
 1.951329184006700E-004  1.999527014851600E-004  2.048915332118500E-004  2.099523540821800E-004 
 2.151381772280100E-004  2.204520902055400E-004  2.258972568336200E-004  2.314769190774100E-004 
 2.371943989786200E-004  2.430531006333900E-004  2.490565122190400E-004  2.552082080708500E-004 
 2.615118508102000E-004  2.679711935252100E-004  2.745900820052800E-004  2.813724570308100E-004 
 2.883223567194700E-004  2.954439189304400E-004  3.027413837280200E-004  3.102190959061100E-004 
 3.178815075749900E-004  3.257331808120900E-004  3.337787903781500E-004  3.420231265004900E-004 
 3.504710977250500E-004  3.591277338388600E-004  3.679981888646800E-004  3.770877441296400E-004 
 3.864018114096400E-004  3.959459361514600E-004  4.057258007744000E-004  4.157472280535300E-004 
 4.260161845864500E-004  4.365387843457300E-004  4.473212923190700E-004  4.583701282393500E-004 
 4.696918704068700E-004  4.812932596059100E-004  4.931812031181800E-004  5.053627788352000E-004 
 5.178452394724300E-004  5.306360168874000E-004  5.437427265045200E-004  5.571731718491800E-004 
 5.709353491938500E-004  5.850374523189400E-004  5.994878773912200E-004  6.142952279627800E-004 
 6.294683200934600E-004  6.450161875997700E-004  6.609480874334900E-004  6.772735051930900E-004 
 6.940021607713600E-004  7.111440141424100E-004  7.287092712917300E-004  7.467083902926400E-004 
 7.651520875328700E-004  7.840513440949300E-004  8.034174122940700E-004  8.232618223777400E-004 
 8.435963893904700E-004  8.644332202084099E-004  8.857847207475600E-004  9.076636033500200E-004 
 9.300828943527699E-004  9.530559418432800E-004  9.765964236068099E-004  1.000718355269900E-003 
 1.025436098645100E-003  1.050764370281600E-003  1.076718250227600E-003  1.103313191008200E-003 
 1.130565026826100E-003  1.158489982988700E-003  1.187104685568500E-003  1.216426171302000E-003 
 1.246471897733200E-003  1.277259753607200E-003  1.308808069521300E-003  1.341135628838500E-003 
 1.374261678870800E-003  1.408205942338900E-003  1.442988629114700E-003  1.478630448253800E-003 
 1.515152620325700E-003  1.552576890047700E-003  1.590925539231900E-003  1.630221400050900E-003 
 1.670487868632200E-003  1.711748918987400E-003  1.754029117286400E-003  1.797353636483400E-003 
 1.841748271304500E-003  1.887239453605700E-003  1.933854268109800E-003  1.981620468532100E-003 
 2.030566494104800E-003  2.080721486509200E-003  2.132115307226000E-003  2.184778555314500E-003 
 2.238742585630800E-003  2.294039527495800E-003  2.350702303825000E-003  2.408764650729500E-003 
 2.468261137602500E-003  2.529227187701300E-003  2.591699099237500E-003  2.655714066988600E-003 
 2.721310204443300E-003  2.788526566493000E-003  2.857403172685400E-003  2.927981031050700E-003 
 3.000302162517700E-003  3.074409625931900E-003  3.150347543692400E-003  3.228161128021600E-003 
 3.307896707883700E-003  3.389601756568400E-003  3.473324919955700E-003  3.559116045478600E-003 
 3.647026211801900E-003  3.737107759233400E-003  3.829414320886500E-003  3.924000854612400E-003 
 4.020923675721300E-003  4.120240490511600E-003  4.222010430627300E-003  4.326294088263700E-003 
 4.433153552243900E-003  4.542652444984300E-003  4.654855960375400E-003  4.769830902596700E-003 
 4.887645725890800E-003  5.008370575320300E-003  5.132077328530700E-003  5.258839638545400E-003 
 5.388732977617500E-003  5.521834682164700E-003  5.658223998814100E-003  5.797982131584800E-003 
 5.941192290235000E-003  6.087939739803800E-003  6.238311851376900E-003  6.392398154105900E-003 
 6.550290388512400E-003  6.712082561108600E-003  6.877871000368000E-003  7.047754414077100E-003 
 7.221833948104800E-003  7.400213246623000E-003  7.582998513814600E-003  7.770298577105800E-003 
 7.962224951960299E-003  8.158891908273701E-003  8.360416538408100E-003  8.566918826906701E-003 
 8.778521721931300E-003  8.995351208463001E-003  9.217536383312099E-003  9.445209531979901E-003 
 9.678506207419800E-003  9.917565310743099E-003  1.016252917391800E-002  1.041354364451400E-002 
 1.067075817253400E-002  1.093432589939500E-002  1.120440374911000E-002  1.148115252171300E-002 
 1.176473698900000E-002  1.205532599262800E-002  1.235309254464600E-002  1.265821393049900E-002 
 1.297087181458200E-002  1.329125234840200E-002  1.361954628140800E-002  1.395594907455800E-002 
 1.430066101670000E-002  1.465388734381300E-002  1.501583836120500E-002  1.538672956872600E-002 
 1.576678178907400E-002  1.615622129926400E-002  1.655527996535600E-002  1.696419538050000E-002 
 1.738321100639900E-002  1.781257631825700E-002  1.825254695331800E-002  1.870338486306500E-002 
 1.916535846918200E-002  1.963874282337100E-002  2.012381977110800E-002  2.062087811945500E-002 
 2.113021380900500E-002  2.165213009008800E-002  2.218693770331300E-002  2.273495506458500E-002 
 2.329650845468000E-002  2.387193221351000E-002  2.446156893918400E-002  2.506576969198200E-002 
 2.568489420337400E-002  2.631931109019700E-002  2.696939807412500E-002  2.763554220655600E-002 
 2.831814009905800E-002  2.901759815950500E-002  2.973433283404400E-002  3.046877085504500E-002 
 3.122134949516500E-002  3.199251682769600E-002  3.278273199334000E-002  3.359246547357500E-002 
 3.442219937077200E-002  3.527242769523000E-002  3.614365665930300E-002  3.703640497878700E-002 
 3.795120418176300E-002  3.888859892505300E-002  3.984914731850200E-002  4.083342125726900E-002 
 4.184200676232300E-002  4.287550432935300E-002  4.393452928628800E-002  4.501971215965900E-002 
 4.613169905000300E-002  4.727115201653800E-002  4.843874947134600E-002  4.963518658328800E-002 
 5.086117569189600E-002  5.211744673148500E-002  5.340474766575300E-002  5.472384493309700E-002 
 5.607552390294500E-002  5.746058934334700E-002  5.887986590012800E-002  6.033419858786100E-002 
 6.182445329298100E-002  6.335151728931800E-002  6.491629976636400E-002  6.651973237059300E-002 
 6.816276976014700E-002  6.984639017322300E-002  7.157159601050100E-002  7.333941443196100E-002 
 7.515089796843000E-002  7.700712514825001E-002  7.890920113941199E-002  8.085825840755601E-002 
 8.285545739022200E-002  8.490198718776100E-002  8.699906627129800E-002  8.914794320819899E-002 
 9.134989740544200E-002  9.360623987135600E-002  9.591831399617901E-002  9.828749635188500E-002 
 1.007151975117800E-001  1.032028628903200E-001  1.057519736037100E-001  1.083640473517200E-001 
 1.110406393213100E-001  1.137833431125400E-001  1.165937916874200E-001  1.194736583421000E-001 
 1.224246577031500E-001  1.254485467484200E-001  1.285471258531100E-001  1.317222398616800E-001 
 1.349757791862600E-001  1.383096809321600E-001  1.417259300511900E-001  1.452265605234500E-001 
 1.488136565683800E-001  1.524893538856200E-001  1.562558409265900E-001  1.601153601974800E-001 
 1.640702095943600E-001  1.681227437713400E-001  1.722753755424900E-001  1.765305773183900E-001 
 1.808908825781500E-001  1.853588873778300E-001  1.899372518960700E-001  1.946287020179000E-001 
 1.994360309577400E-001  2.043621009224000E-001  2.094098448151800E-001  2.145822679821200E-001 
 2.198824500012700E-001  2.253135465163100E-001  2.308787911152600E-001  2.365814972558100E-001 
 2.424250602380200E-001  2.484129592259000E-001  2.545487593187800E-001  2.608361136739600E-001 
 2.672787656817000E-001  2.738805511940400E-001  2.806454008085400E-001  2.875773422085100E-001 
 2.946805025610600E-001  3.019591109743100E-001  3.094175010153800E-001  3.170601132904600E-001 
 3.248914980887300E-001  3.329163180915300E-001  3.411393511483900E-001  3.495654931217500E-001 
 3.581997608018600E-001  3.670472948936600E-001  3.761133630775400E-001  3.854033631455500E-001 
 3.949228262152500E-001  4.046774200227600E-001  4.146729522973300E-001  4.249153742190700E-001 
 4.354107839622800E-001  4.461654303261500E-001  4.571857164552100E-001  4.684782036516500E-001 
 4.800496152818500E-001  4.919068407793100E-001  5.040569397465600E-001  5.165071461583000E-001 
 5.292648726684100E-001  5.423377150233200E-001  5.557334565843900E-001  5.694600729620301E-001 
 5.835257367641900E-001  5.979388224622600E-001  6.127079113770800E-001  6.278417967880900E-001 
 6.433494891687600E-001  6.592402215512300E-001  6.755234550235401E-001  6.922088843626300E-001 
 7.093064438063800E-001  7.268263129683999E-001  7.447789228987201E-001  7.631749622943200E-001 
 7.820253838629900E-001  8.013414108444000E-001  8.211345436922600E-001  8.414165669214601E-001 
 8.621995561244200E-001  8.834958851606900E-001  9.053182335241600E-001  9.276795938922100E-001 
 9.505932798613400E-001  9.740729338739200E-001  9.981325353406100E-001  1.022786408963500E+000 
 1.048049233264900E+000  1.073936049326600E+000  1.100462269744900E+000  1.127643687807600E+000 
 1.155496486896500E+000  1.184037250122800E+000  1.213282970200900E+000  1.243251059564800E+000 
 1.273959360736100E+000  1.305426156946200E+000  1.337670183022800E+000  1.370710636543500E+000 
 1.404567189266100E+000  1.439259998841000E+000  1.474809720812300E+000  1.511237520916400E+000 
 1.548565087683000E+000  1.586814645348800E+000  1.626008967088900E+000  1.666171388576000E+000 
 1.707325821873900E+000  1.749496769674100E+000  1.792709339885100E+000  1.836989260580300E+000 
 1.882362895316600E+000  1.928857258830900E+000  1.976500033124000E+000  2.025319583942200E+000 
 2.075344977665600E+000  2.126605998613900E+000  2.179133166779700E+000  2.232957755999100E+000 
 2.288111812572300E+000  2.344628174342800E+000  2.402540490249100E+000  2.461883240358300E+000 
 2.522691756395100E+000  2.585002242778100E+000  2.648851798174700E+000  2.714278437589600E+000 
 2.781321114998100E+000  2.850019746538500E+000  2.920415234278000E+000  2.992549490564700E+000 
 3.066465462981600E+000  3.142207159917300E+000  3.219819676767200E+000  3.299349222783400E+000 
 3.380843148586100E+000  3.464349974356200E+000  3.549919418722800E+000  3.637602428365300E+000 
 3.727451208345900E+000  3.819519253192000E+000  3.913861378745900E+000  4.010533754800900E+000 
 4.109593938544500E+000  4.211100908826500E+000  4.315115101274500E+000  4.421698444276000E+000 
 4.530914395849600E+000  4.642827981427100E+000  4.757505832568400E+000  4.875016226632800E+000 
 4.995429127430600E+000  5.118816226878200E+000  5.245250987682100E+000  5.374808687077800E+000 
 5.507566461648600E+000  5.643603353251400E+000  5.783000356076700E+000  5.925840464871800E+000 
 6.072208724354100E+000  6.222192279845600E+000  6.375880429157800E+000  6.533364675758000E+000 
 6.694738783249300E+000  6.860098831195500E+000  7.029543272326000E+000  7.203172991152500E+000 
 7.381091364034000E+000  7.563404320725600E+000  7.750220407447500E+000  7.941650851511500E+000 
 8.137809627543801E+000  8.338813525344101E+000  8.544782219420100E+000  8.755838340239800E+000 
 8.972107547243700E+000  9.193718603660701E+000  9.420803453171100E+000  9.653497298464400E+000 
 9.891938681736500E+000  1.013626956717500E+001  1.038663542548500E+001  1.064318532049400E+001 
 1.090607199791000E+001  1.117545197625900E+001  1.145148564007200E+001  1.173433733538200E+001 
 1.202417546756600E+001  1.232117260161500E+001  1.262550556487500E+001  1.293735555232700E+001 
 1.325690823447000E+001  1.358435386786100E+001  1.391988740839700E+001  1.426370862738500E+001 
 1.461602223048100E+001  1.497703797957400E+001  1.534697081766900E+001  1.572604099686600E+001 
 1.611447420948800E+001  1.651250172246300E+001  1.692036051500800E+001  1.733829341972800E+001 
 1.776654926719600E+001  1.820538303409500E+001  1.865505599503700E+001  1.911583587811500E+001 
 1.958799702430400E+001  2.007182055080500E+001  2.056759451840900E+001  2.107561410301400E+001 
 2.159618177135900E+001  2.212960746111100E+001  2.267620876540100E+001  2.323631112190600E+001 
 2.381024800661700E+001  2.439836113238000E+001  2.500100065235000E+001  2.561852536846300E+001 
 2.625130294506400E+001  2.689971012780700E+001  2.756413296796400E+001  2.824496705227300E+001 
 2.894261773846400E+001  2.965750039660400E+001  3.039004065640000E+001  3.114067466061300E+001 
 3.190984932473100E+001  3.269802260305100E+001  3.350566376134700E+001  3.433325365625200E+001 
 3.518128502156100E+001  3.605026276159400E+001  3.694070425180500E+001  3.785313964682500E+001 
 3.878811219610200E+001  3.974617856734500E+001  4.072790917795900E+001  4.173388853465400E+001 
 4.276471558146000E+001  4.382100405632200E+001  4.490338285651300E+001  4.601249641306900E+001 
 4.714900507447200E+001  4.831358549981200E+001  4.950693106165700E+001  5.072975225888000E+001 
 5.198277713967400E+001  5.326675173502400E+001  5.458244050287900E+001  5.593062678330000E+001 
 5.731211326484800E+001  5.872772246249000E+001  6.017829720731300E+001  6.166470114833400E+001 
 6.318781926669800E+001  6.474855840258500E+001  6.634784779512900E+001  6.798663963566899E+001 
 6.966590963467000E+001  7.138665760264600E+001  7.314990804543100E+001  7.495671077415300E+001 
 7.680814153027499E+001
    </PP_R>
    <PP_RAB type="real" size="569" columns="4">
 1.794109325259938E-006  1.838423825593853E-006  1.883832894086027E-006  1.930363566569946E-006 
 1.978043546664226E-006  2.026901222266841E-006  2.076965682456823E-006  2.128266734813500E-006 
 2.180834923163389E-006  2.234701545765525E-006  2.289898673945950E-006  2.346459171192406E-006 
 2.404416712720871E-006  2.463805805525095E-006  2.524661808921446E-006  2.587020955601896E-006 
 2.650920373205271E-006  2.716398106423554E-006  2.783493139652049E-006  2.852245420201491E-006 
 2.922695882080362E-006  2.994886470367946E-006  3.068860166185896E-006  3.144661012290799E-006 
 3.222334139294284E-006  3.301925792534866E-006  3.383483359610536E-006  3.467055398592832E-006 
 3.552691666938028E-006  3.640443151111521E-006  3.730362096943972E-006  3.822502040738484E-006 
 3.916917841144656E-006  4.013665711821006E-006  4.112803254903078E-006  4.214389495299183E-006 
 4.318484915832838E-006  4.425151493254055E-006  4.534452735137349E-006  4.646453717695214E-006 
 4.761221124522462E-006  4.878823286298007E-006  4.999330221469728E-006  5.122813677939964E-006 
 5.249347175785085E-006  5.379006051026931E-006  5.511867500487373E-006  5.648010627749402E-006 
 5.787516490254762E-006  5.930468147564008E-006  6.076950710808969E-006  6.227051393365942E-006 
 6.380859562782081E-006  6.538466793982752E-006  6.699966923794060E-006  6.865456106811763E-006 
 7.035032872649990E-006  7.208798184604421E-006  7.386855499764105E-006  7.569310830608472E-006 
 7.756272808124479E-006  7.947852746485098E-006  8.144164709323314E-006  8.345325577643591E-006 
 8.551455119411337E-006  8.762676060860828E-006  8.979114159564094E-006  9.200898279305386E-006 
 9.428160466804177E-006  9.661036030334287E-006  9.899663620283518E-006  1.014418531170458E-005 
 1.039474668890363E-005  1.065149693211942E-005  1.091458890634278E-005  1.118417925232942E-005 
 1.146042847986215E-005  1.174350106331451E-005  1.203356553957848E-005  1.233079460840609E-005 
 1.263536523523373E-005  1.294745875654403E-005  1.326726098783070E-005  1.359496233423008E-005 
 1.393075790388544E-005  1.427484762411146E-005  1.462743636042707E-005  1.498873403852954E-005 
 1.535895576928120E-005  1.573832197678249E-005  1.612705852960915E-005  1.652539687529032E-005 
 1.693357417811001E-005  1.735183346030926E-005  1.778042374677896E-005  1.821960021332451E-005 
 1.866962433859367E-005  1.913076405975688E-005  1.960329393203276E-005  2.008749529215413E-005 
 2.058365642587033E-005  2.109207273958921E-005  2.161304693625712E-005  2.214688919558256E-005 
 2.269391735871356E-005  2.325445711747370E-005  2.382884220827532E-005  2.441741461081977E-005 
 2.502052475170783E-005  2.563853171307419E-005  2.627180344638821E-005  2.692071699151347E-005 
 2.758565870120379E-005  2.826702447112341E-005  2.896521997555965E-005  2.968066090895494E-005 
 3.041377323340712E-005  3.116499343227203E-005  3.193476877004921E-005  3.272355755867000E-005 
 3.353182943036888E-005  3.436006561729879E-005  3.520875923804678E-005  3.607841559122573E-005 
 3.696955245632976E-005  3.788270040200001E-005  3.881840310192994E-005  3.977721765854693E-005 
 4.075971493471408E-005  4.176647989360115E-005  4.279811194697337E-005  4.385522531206425E-005 
 4.493844937727126E-005  4.604842907688935E-005  4.718582527508947E-005  4.835131515938389E-005 
 4.954559264381962E-005  5.076936878212224E-005  5.202337219104121E-005  5.330834948416037E-005 
 5.462506571641991E-005  5.597430483961350E-005  5.735687016915327E-005  5.877358486233191E-005 
 6.022529240843105E-005  6.171285713091974E-005  6.323716470205292E-005  6.479912267019201E-005 
 6.639966100014775E-005  6.803973262685018E-005  6.972031402273394E-005  7.144240577909474E-005 
 7.320703320183956E-005  7.501524692192530E-005  7.686812352089643E-005  7.876676617186251E-005 
 8.071230529630669E-005  8.270589923712480E-005  8.474873494828326E-005  8.684202870150571E-005 
 8.898702681043239E-005  9.118500637264990E-005  9.343727603005520E-005  9.574517674799767E-005 
 9.811008261367256E-005  1.005334016542299E-004  1.030165766750909E-004  1.055610861189633E-004 
 1.081684449461039E-004  1.108402055362720E-004  1.135779586130176E-004  1.163833341907599E-004 
 1.192580025452707E-004  1.222036752081388E-004  1.252221059857795E-004  1.283150920036281E-004 
 1.314844747761184E-004  1.347321413030897E-004  1.380600251932744E-004  1.414701078155480E-004 
 1.449644194785934E-004  1.485450406397146E-004  1.522141031435142E-004  1.559737914911588E-004 
 1.598263441409925E-004  1.637740548412736E-004  1.678192739958535E-004  1.719644100635513E-004 
 1.762119309921209E-004  1.805643656876266E-004  1.850243055201113E-004  1.895944058664575E-004 
 1.942773876913587E-004  1.990760391673348E-004  2.039932173347689E-004  2.090318498029358E-004 
 2.141949364930684E-004  2.194855514244471E-004  2.249068445446325E-004  2.304620436048847E-004 
 2.361544560819253E-004  2.419874711471495E-004  2.479645616844731E-004  2.540892863580851E-004 
 2.603652917311420E-004  2.667963144368869E-004  2.733861834034766E-004  2.801388221335421E-004 
 2.870582510402573E-004  2.941485898409444E-004  3.014140600100179E-004  3.088589872922713E-004 
 3.164878042783824E-004  3.243050530440542E-004  3.323153878542538E-004  3.405235779342349E-004 
 3.489345103092207E-004  3.575531927138709E-004  3.663847565738991E-004  3.754344600612558E-004 
 3.847076912247802E-004  3.942099711980292E-004  4.039469574866248E-004  4.139244473365374E-004 
 4.241483811857656E-004  4.346248462010527E-004  4.453600799022199E-004  4.563604738758059E-004 
 4.676325775805211E-004  4.791831022467650E-004  4.910189248722537E-004  5.031470923166138E-004 
 5.155748254968209E-004  5.283095236866066E-004  5.413587689216614E-004  5.547303305140307E-004 
 5.684321696777211E-004  5.824724442687463E-004  5.968595136421916E-004  6.116019436291576E-004 
 6.267085116367989E-004  6.421882118742196E-004  6.580502607075161E-004  6.743041021469944E-004 
 6.909594134700269E-004  7.080261109827431E-004  7.255143559239979E-004  7.434345605153235E-004 
 7.617973941600614E-004  7.806137897958253E-004  7.998949504037800E-004  8.196523556787412E-004 
 8.398977688639985E-004  8.606432437549378E-004  8.819011318757046E-004  9.036840898330155E-004 
 9.260050868518901E-004  9.488774124971429E-004  9.723146845858268E-004  9.963308572950968E-004 
 1.020940229470272E-003  1.046157453138203E-003  1.071997542230716E-003  1.098475881523808E-003 
 1.125608235797456E-003  1.153410759221651E-003  1.181900004974414E-003  1.211092935097276E-003 
 1.241006930594198E-003  1.271659801779854E-003  1.303069798883825E-003  1.335255622916253E-003 
 1.368236436802296E-003  1.402031876791295E-003  1.436662064148048E-003  1.472147617132501E-003 
 1.508509663275670E-003  1.545769851958588E-003  1.583950367301961E-003  1.623073941374315E-003 
 1.663163867726269E-003  1.704244015259117E-003  1.746338842436002E-003  1.789473411844187E-003 
 1.833673405116727E-003  1.878965138223105E-003  1.925375577137221E-003  1.972932353892524E-003 
 2.021663783033653E-003  2.071598878474597E-003  2.122767370772903E-003  2.175199724830992E-003 
 2.228927158034329E-003  2.283981658837767E-003  2.340396005811072E-003  2.398203787154615E-003 
 2.457439420697418E-003  2.518138174388621E-003  2.580336187295998E-003  2.644070491122169E-003 
 2.709379032252948E-003  2.776300694349441E-003  2.844875321499878E-003  2.915143741940943E-003 
 2.987147792366887E-003  3.060930342838403E-003  3.136535322306610E-003  3.214007744767539E-003 
 3.293393736063211E-003  3.374740561343958E-003  3.458096653209291E-003  3.543511640543454E-003 
 3.631036378064896E-003  3.720722976603123E-003  3.812624834125103E-003  3.906796667528072E-003 
 4.003294545216070E-003  4.102175920482891E-003  4.203499665718767E-003  4.307326107462033E-003 
 4.413717062316241E-003  4.522735873755445E-003  4.634447449837389E-003  4.748918301848302E-003 
 4.866216583903903E-003  4.986412133526423E-003  5.109576513224445E-003  5.235783053101212E-003 
 5.365106894512608E-003  5.497625034807280E-003  5.633416373166950E-003  5.772561757584250E-003 
 5.915144032996372E-003  6.061248090611405E-003  6.210960918449513E-003  6.364371653135365E-003 
 6.521571632967643E-003  6.682654452301992E-003  6.847716017274028E-003  7.016854602900673E-003 
 7.190170911592315E-003  7.367768133108446E-003  7.549752005996336E-003  7.736230880544448E-003 
 7.927315783293790E-003  8.123120483141349E-003  8.323761559074922E-003  8.529358469583945E-003 
 8.740033623782737E-003  8.955912454290024E-003  9.177123491911150E-003  9.403798442161227E-003 
 9.636072263682729E-003  9.874083248595530E-003  1.011797310483603E-002  1.036788704052538E-002 
 1.062397385042633E-002  1.088638600453191E-002  1.115527973884394E-002  1.143081514839330E-002 
 1.171315628255871E-002  1.200247124273788E-002  1.229893228243352E-002  1.260271590980963E-002 
 1.291400299278193E-002  1.323297886670365E-002  1.355983344471108E-002  1.389476133079559E-002 
 1.423796193566618E-002  1.458963959547700E-002  1.495000369348534E-002  1.531926878471433E-002 
 1.569765472369688E-002  1.608538679537223E-002  1.648269584921780E-002  1.688981843669368E-002 
 1.730699695207985E-002  1.773447977679628E-002  1.817252142728316E-002  1.862138270653709E-002 
 1.908133085938856E-002  1.955263973161532E-002  2.003558993298630E-002  2.053046900433109E-002 
 2.103757158873807E-002  2.155719960697982E-002  2.208966243727224E-002  2.263527709947295E-002 
 2.319436844382974E-002  2.376726934439246E-002  2.435432089719905E-002  2.495587262335931E-002 
 2.557228267715632E-002  2.620391805928347E-002  2.685115483534614E-002  2.751437835977921E-002 
 2.819398350526704E-002  2.889037489784607E-002  2.960396715782449E-002  3.033518514662124E-002 
 3.108446421974399E-002  3.185225048596968E-002  3.263900107297383E-002  3.344518439947718E-002 
 3.427128045414368E-002  3.511778108136169E-002  3.598519027406955E-002  3.687402447383995E-002 
 3.778481287834294E-002  3.871809775643874E-002  3.967443477102240E-002  4.065439330986675E-002 
 4.165855682462224E-002  4.268752317818833E-002  4.374190500069079E-002  4.482233005420878E-002 
 4.592944160654693E-002  4.706389881422815E-002  4.822637711493902E-002  4.941756862967892E-002 
 5.063818257483266E-002  5.188894568443005E-002  5.317060264283636E-002  5.448391652811299E-002 
 5.582966926635792E-002  5.720866209723609E-002  5.862171605103863E-002  6.006967243750044E-002 
 6.155339334670547E-002  6.307376216237010E-002  6.463168408778018E-002  6.622808668474797E-002 
 6.786392042586216E-002  6.954015926037965E-002  7.125780119411100E-002  7.301786888360635E-002 
 7.482141024503026E-002  7.666949907808383E-002  7.856323570531111E-002  8.050374762723353E-002 
 8.249219019362497E-002  8.452974729140808E-002  8.661763204950590E-002  8.875708756112984E-002 
 9.094938762388918E-002  9.319583749819818E-002  9.549777468440508E-002  9.785656971910930E-002 
 1.002736269911717E-001  1.027503855778525E-001  1.052883201016251E-001  1.078889416081357E-001 
 1.105537984658563E-001  1.132844772879633E-001  1.160826038769772E-001  1.189498441927376E-001 
 1.218879053442974E-001  1.248985366063032E-001  1.279835304604791E-001  1.311447236628517E-001 
 1.343839983373236E-001  1.377032830962575E-001  1.411045541887348E-001  1.445898366771967E-001 
 1.481612056431226E-001  1.518207874225066E-001  1.555707608718429E-001  1.594133586653775E-001 
 1.633508686244141E-001  1.673856350794358E-001  1.715200602658971E-001  1.757566057544659E-001 
 1.800977939166021E-001  1.845462094263412E-001  1.891045007991713E-001  1.937753819689119E-001 
 1.985616339035432E-001  2.034661062609600E-001  2.084917190856057E-001  2.136414645470207E-001 
 2.189184087213316E-001  2.243256934167504E-001  2.298665380441437E-001  2.355442415338334E-001 
 2.413621842997198E-001  2.473238302519133E-001  2.534327288591546E-001  2.596925172619640E-001 
 2.661069224383296E-001  2.726797634225715E-001  2.794149535790945E-001  2.863165029325035E-001 
 2.933885205549379E-001  3.006352170126478E-001  3.080609068728629E-001  3.156700112726125E-001 
 3.234670605510588E-001  3.314566969466600E-001  3.396436773612384E-001  3.480328761920755E-001 
 3.566292882340098E-001  3.654380316533927E-001  3.744643510352199E-001  3.837136205058039E-001 
 3.931913469322828E-001  4.029031732015260E-001  4.128548815796076E-001  4.230523971546069E-001 
 4.335017913643433E-001  4.442092856110245E-001  4.551812549656131E-001  4.664242319632781E-001 
 4.779449104927603E-001  4.897501497819484E-001  5.018469784815409E-001  5.142425988500423E-001 
 5.269443910416518E-001  5.399599175003668E-001  5.532969274626395E-001  5.669633615709567E-001 
 5.809673566017576E-001  5.953172503098102E-001  6.100215863924677E-001  6.250891195763606E-001 
 6.405288208298958E-001  6.563498827043923E-001  6.725617248071948E-001  6.891739994099396E-001 
 7.061965971953617E-001  7.236396531460856E-001  7.415135525787910E-001  7.598289373274852E-001 
 7.785967120794950E-001  7.978280508678377E-001  8.175344037242889E-001  8.377275034962721E-001 
 8.584193728326198E-001  8.796223313415963E-001  9.013490029257247E-001  9.236123232980001E-001 
 9.464255476834711E-001  9.698022587112353E-001  9.937563745014170E-001  1.018302156951588E+000 
 1.043454220228293E+000  1.069227539467930E+000  1.095637459692784E+000  1.122699704947199E+000 
 1.150430387659400E+000  1.178846018234600E+000  1.207963514884986E+000  1.237800213702647E+000 
 1.268373878981094E+000  1.299702713791929E+000  1.331805370822587E+000  1.364700963481902E+000 
 1.398409077279917E+000  1.432949781488737E+000  1.468343641091497E+000  1.504611729026466E+000 
 1.541775638733423E+000  1.579857497010128E+000  1.618879977186282E+000  1.658866312622790E+000 
 1.699840310544573E+000  1.741826366215015E+000  1.784849477460518E+000  1.828935259553789E+000 
 1.874109960464778E+000
    </PP_RAB>
  </PP_MESH>
  <PP_NLCC type="real" size="569" columns="4">