<UPF version="2.0.1">
  <PP_INFO>
    Generated using FHI98PP, converted with fhi2upf.x v.5.0.1
    Author: Abinit web site
    Generation date: 10-Jul-2012, PG
    Pseudopotential type: SL
    Element: Bh
    Functional: SLA-PW

    Suggested minimum cutoff for wavefunctions:   0. Ry
    Suggested minimum cutoff for charge density:   0. Ry
    The Pseudo was generated with a Non-Relativistic Calculation
    L component and cutoff radius for Local Potential:  0   0.0000

    Valence configuration: 
    nl pn  l   occ       Rcut    Rcut US       E pseu
    7s  7  0  2.00      0.000      0.000     0.000000
    7p  7  1  0.00      0.000      0.000     0.000000
    6d  6  2  5.00      0.000      0.000     0.000000
    5f  5  3 14.00      0.000      0.000     0.000000

    Generation configuration: not available.
    Comment:
    bohrium, fhi98PP : Trouiller-Martins-type, LDA Ceperley/Alder Perdew/Wang (1992)
  </PP_INFO>
  <!--                               -->
  <!-- END OF HUMAN READABLE SECTION -->
  <!--                               -->
  <PP_HEADER generated="Generated using FHI98PP, converted with fhi2upf.x v.5.0.1"
             author="Abinit web site"
             date="10-Jul-2012, PG"
             comment="bohrium, fhi98PP : Trouiller-Martins-type, LDA Ceperley/Alder Perdew/Wang (1992)"
             element="Bh"
             pseudo_type="SL"
             relativistic="no"
             is_ultrasoft="F"
             is_paw="F"
             is_coulomb="F"
             has_so="F"
             has_wfc="F"
             has_gipaw="F"
             paw_as_gipaw="F"
             core_correction="T"
             functional="SLA-PW"
             z_valence="2.100000000000000E+001"
             total_psenergy="0.000000000000000E+000"
             wfc_cutoff="0.000000000000000E+000"
             rho_cutoff="0.000000000000000E+000"
             l_max="3"
             l_max_rho="0"
             l_local="0"
             mesh_size="579"
             number_of_wfc="4"
             number_of_proj="3"/>
  <PP_MESH dx="2.439988682353512E-002" mesh="579" xmin="-5.075173815233827E+000" rmax="7.787709932024200E+001"
zmesh="1.070000000000000E+002">
    <PP_R type="real" size="579" columns="4">
 5.841121495327100E-005  5.985397196261700E-005  6.133236507009300E-005  6.284727448732500E-005 
 6.439960216716200E-005  6.599027234069100E-005  6.762023206750601E-005  6.929045179957300E-005 
 7.100192595902200E-005  7.275567353021000E-005  7.455273866640600E-005  7.639419131146699E-005 
 7.828112783686000E-005  8.021467169443000E-005  8.219597408528300E-005  8.422621464518900E-005 
 8.630660214692500E-005  8.843837521995399E-005  9.062280308788700E-005  9.286118632415800E-005 
 9.515485762636500E-005  9.750518260973600E-005  9.991356062019700E-005  1.023814255675200E-004 
 1.049102467790300E-004  1.075015298744800E-004  1.101568176623700E-004  1.128776910586400E-004 
 1.156657700277800E-004  1.185227145474700E-004  1.214502255967900E-004  1.244500461690300E-004 
 1.275239623094100E-004  1.306738041784500E-004  1.339014471416600E-004  1.372088128860600E-004 
 1.405978705643400E-004  1.440706379672800E-004  1.476291827250700E-004  1.512756235383800E-004 
 1.550121314397800E-004  1.588409310863400E-004  1.627643020841800E-004  1.667845803456600E-004 
 1.709041594801900E-004  1.751254922193500E-004  1.794510918771700E-004  1.838835338465400E-004 
 1.884254571325500E-004  1.930795659237200E-004  1.978486312020400E-004  2.027354923927300E-004 
 2.077430590548300E-004  2.128743126134800E-004  2.181323081350400E-004  2.235201761459700E-004 
 2.290411244967800E-004  2.346984402718500E-004  2.404954917465600E-004  2.464357303927000E-004 
 2.525226929334000E-004  2.587600034488600E-004  2.651513755340400E-004  2.717006145097300E-004 
 2.784116196881200E-004  2.852883866944200E-004  2.923350098457700E-004  2.995556845889600E-004 
 3.069547099983100E-004  3.145364913352700E-004  3.223055426712500E-004  3.302664895752300E-004 
 3.384240718677400E-004  3.467831464428700E-004  3.553486901600100E-004  3.641258028069600E-004 
 3.731197101362900E-004  3.823357669766600E-004  3.917794604209800E-004  4.014564130933800E-004 
 4.113723864967900E-004  4.215332844432600E-004  4.319451565690100E-004  4.426142019362600E-004 
 4.535467727240900E-004  4.647493780103700E-004  4.762286876472300E-004  4.879915362321200E-004 
 5.000449271770500E-004  5.123960368783200E-004  5.250522189892200E-004  5.380210087982500E-004 
 5.513101277155700E-004  5.649274878701400E-004  5.788811968205300E-004  5.931795623820000E-004 
 6.078310975728400E-004  6.228445256828900E-004  6.382287854672500E-004  6.539930364682900E-004 
 6.701466644690600E-004  6.866992870814500E-004  7.036607594723601E-004  7.210411802313300E-004 
 7.388508973830400E-004  7.571005145484000E-004  7.758008972577500E-004  7.949631794200100E-004 
 8.145987699516900E-004  8.347193595694900E-004  8.553369277508600E-004  8.764637498663100E-004 
 8.981124044880000E-004  9.202957808788600E-004  9.430270866665700E-004  9.663198557072300E-004 
 9.901879561432000E-004  1.014645598659900E-003  1.039707344946800E-003  1.065388116367000E-003 
 1.091703202841300E-003  1.118668271951500E-003  1.146299378268700E-003  1.174612972911900E-003 
 1.203625913342800E-003  1.233355473402400E-003  1.263819353595400E-003  1.295035691629200E-003 
 1.327023073212500E-003  1.359800543120800E-003  1.393387616535900E-003  1.427804290664400E-003 
 1.463071056643800E-003  1.499208911742900E-003  1.536239371862900E-003  1.574184484347900E-003 
 1.613066841111300E-003  1.652909592086800E-003  1.693736459011300E-003  1.735571749548900E-003 
 1.778440371762800E-003  1.822367848945300E-003  1.867380334814200E-003  1.913504629084200E-003 
 1.960768193422500E-003  2.009199167800100E-003  2.058826387244700E-003  2.109679399009700E-003 
 2.161788480165200E-003  2.215184655625300E-003  2.269899716619200E-003  2.325966239619700E-003 
 2.383417605738300E-003  2.442288020600100E-003  2.502612534708900E-003  2.564427064316200E-003 
 2.627768412804800E-003  2.692674292601100E-003  2.759183347628300E-003  2.827335176314800E-003 
 2.897170355169700E-003  2.968730462942400E-003  3.042058105377100E-003  3.117196940579900E-003 
 3.194191705012200E-003  3.273088240126000E-003  3.353933519657200E-003  3.436775677592700E-003 
 3.521664036829200E-003  3.608649138538900E-003  3.697782772260800E-003  3.789118006735700E-003 
 3.882709221502000E-003  3.978612139273100E-003  4.076883859113200E-003  4.177582890433300E-003 
 4.280769187827000E-003  4.386504186766300E-003  4.494850840179400E-003  4.605873655931900E-003 
 4.719638735233400E-003  4.836213811993600E-003  4.955668293149900E-003  5.078073299990700E-003 
 5.203501710500500E-003  5.332028202749800E-003  5.463729299357700E-003  5.598683413051900E-003 
 5.736970893354300E-003  5.878674074420100E-003  6.023877324058300E-003  6.172667093962500E-003 
 6.325131971183400E-003  6.481362730871600E-003  6.641452390324200E-003  6.805496264365200E-003 
 6.973592022095000E-003  7.145839745040700E-003  7.322341986743200E-003  7.503203833815800E-003 
 7.688532968511000E-003  7.878439732833300E-003  8.073037194234200E-003  8.272441212931801E-003 
 8.476770510891201E-003  8.686146742510300E-003  8.900694567050300E-003  9.120541722856401E-003 
 9.345819103411000E-003  9.576660835265200E-003  9.813204357896300E-003  1.005559050553600E-002 
 1.030396359102300E-002  1.055847149172100E-002  1.081926573756700E-002  1.108650160128500E-002 
 1.136033819083600E-002  1.164093854415000E-002  1.192846972619100E-002  1.222310292842800E-002 
 1.252501357076000E-002  1.283438140595700E-002  1.315139062668500E-002  1.347622997516400E-002 
 1.380909285555000E-002  1.415017744908200E-002  1.449968683207500E-002  1.485782909682700E-002 
 1.522481747551900E-002  1.560087046716400E-002  1.598621196770300E-002  1.638107140330500E-002 
 1.678568386696700E-002  1.720029025848100E-002  1.762513742786500E-002  1.806047832233300E-002 
 1.850657213689500E-002  1.896368446867600E-002  1.943208747505300E-002  1.991206003568700E-002 
 2.040388791856800E-002  2.090786395015700E-002  2.142428818972600E-002  2.195346810801200E-002 
 2.249571877028000E-002  2.305136302390600E-002  2.362073169059600E-002  2.420416376335400E-002 
 2.480200660830900E-002  2.541461617153400E-002  2.604235719097100E-002  2.668560341358800E-002 
 2.734473781790300E-002  2.802015284200500E-002  2.871225061720300E-002  2.942144320744800E-002 
 3.014815285467200E-002  3.089281223018200E-002  3.165586469226800E-002  3.243776455016700E-002 
 3.323897733455600E-002  3.405998007471900E-002  3.490126158256500E-002  3.576332274365400E-002 
 3.664667681542300E-002  3.755184973276400E-002  3.847938042116300E-002  3.942982111756500E-002 
 4.040373769916900E-002  4.140171002033900E-002  4.242433225784100E-002  4.347221326461000E-002 
 4.454597693224600E-002  4.564626256247200E-002  4.677372524776500E-002  4.792903626138500E-002 
 4.911288345704100E-002  5.032597167843000E-002  5.156902317888700E-002  5.284277805140600E-002 
 5.414799466927600E-002  5.548545013760700E-002  5.685594075600600E-002  5.826028249267900E-002 
 5.969931147024800E-002  6.117388446356300E-002  6.268487940981300E-002  6.423319593123600E-002 
 6.581975587073700E-002  6.744550384074401E-002  6.911140778561101E-002  7.081845955791501E-002 
 7.256767550899600E-002  7.436009709406800E-002  7.619679149229200E-002  7.807885224215100E-002 
 8.000739989253200E-002  8.198358266987800E-002  8.400857716182400E-002  8.608358901772099E-002 
 8.820985366645800E-002  9.038863705201999E-002  9.262123638720500E-002  9.490898092596900E-002 
 9.725323275484000E-002  9.965538760388500E-002  1.021168756777000E-001  1.046391625069400E-001 
 1.072237498208600E-001  1.098721764414400E-001  1.125860191995400E-001  1.153668938737700E-001 
 1.182164561524500E-001  1.211364026194200E-001  1.241284717641200E-001  1.271944450166900E-001 
 1.303361478086000E-001  1.335554506594700E-001  1.368542702907600E-001  1.402345707669500E-001 
 1.436983646648900E-001  1.472477142721100E-001  1.508847328146300E-001  1.546115857151500E-001 
 1.584304918823200E-001  1.623437250318100E-001  1.663536150401000E-001  1.704625493315900E-001 
 1.746729743000800E-001  1.789873967652900E-001  1.834083854653900E-001  1.879385725863900E-001 
 1.925806553292700E-001  1.973373975159000E-001  2.022116312345500E-001  2.072062585260400E-001 
 2.123242531116300E-001  2.175686621634900E-001  2.229426081189300E-001  2.284492905394700E-001 
 2.340919880157900E-001  2.398740601197800E-001  2.457989494047400E-001  2.518701834550400E-001 
 2.580913769863800E-001  2.644662339979400E-001  2.709985499776900E-001  2.776922141621400E-001 
 2.845512118519400E-001  2.915796267846900E-001  2.987816435662700E-001  3.061615501623500E-001 
 3.137237404513600E-001  3.214727168405100E-001  3.294130929464700E-001  3.375495963422500E-001 
 3.458870713719100E-001  3.544304820347900E-001  3.631849149410500E-001  3.721555823400900E-001 
 3.813478252239000E-001  3.907671165069300E-001  4.004190642846500E-001  4.103094151724800E-001 
 4.204440577272400E-001  4.308290259531000E-001  4.414705028941400E-001  4.523748243156300E-001 
 4.635484824762200E-001  4.749981299933900E-001  4.867305838042200E-001  4.987528292241900E-001 
 5.110720241060200E-001  5.236955031014400E-001  5.366307820280500E-001  5.498855623441400E-001 
 5.634677357340400E-001  5.773853888066700E-001  5.916468079102000E-001  6.062604840655800E-001 
 6.212351180220000E-001  6.365796254371400E-001  6.523031421854401E-001  6.684150297974200E-001 
 6.849248810334200E-001  7.018425255949400E-001  7.191780359771400E-001  7.369417334657700E-001 
 7.551441942823800E-001  7.737962558811500E-001  7.929090234014100E-001  8.124938762794300E-001 
 8.325624750235300E-001  8.531267681566100E-001  8.741989993300801E-001  8.957917146135300E-001 
 9.179177699644900E-001  9.405903388826100E-001  9.638229202530100E-001  9.876293463832601E-001 
 1.012023791238900E+000  1.037020778882500E+000  1.062635192120900E+000  1.088882281366300E+000 
 1.115777673716100E+000  1.143337382256800E+000  1.171577815598600E+000  1.200515787643900E+000 
 1.230168527598700E+000  1.260553690230400E+000  1.291689366379100E+000  1.323594093728600E+000 
 1.356286867843700E+000  1.389787153479500E+000  1.424114896170400E+000  1.459290534105800E+000 
 1.495335010298200E+000  1.532269785052600E+000  1.570116848743400E+000  1.608898734907300E+000 
 1.648638533659600E+000  1.689359905441000E+000  1.731087095105300E+000  1.773844946354400E+000 
 1.817658916529400E+000  1.862555091767700E+000  1.908560202534300E+000  1.955701639536900E+000 
 2.004007470033500E+000  2.053506454543300E+000  2.104228063970500E+000  2.156202497150600E+000 
 2.209460698830200E+000  2.264034378091300E+000  2.319956027230200E+000  2.377258941102800E+000 
 2.435977236948000E+000  2.496145874700600E+000  2.557800677805700E+000  2.620978354547500E+000 
 2.685716519904900E+000  2.752053717946500E+000  2.820029444779800E+000  2.889684172065900E+000 
 2.961059371115900E+000  3.034197537582500E+000  3.109142216760700E+000  3.185938029514700E+000 
 3.264630698843700E+000  3.345267077105200E+000  3.427895173909700E+000  3.512564184705200E+000 
 3.599324520067500E+000  3.688227835713100E+000  3.779327063255200E+000  3.872676441717700E+000 
 3.968331549828100E+000  4.066349339108800E+000  4.166788167784800E+000  4.269707835529100E+000 
 4.375169619066700E+000  4.483236308657600E+000  4.593972245481500E+000  4.707443359944900E+000 
 4.823717210935500E+000  4.942863026045600E+000  5.064951742788900E+000  5.190056050835800E+000 
 5.318250435291500E+000  5.449611221043200E+000  5.584216618202900E+000  5.722146768672500E+000 
 5.863483793858700E+000  6.008311843567100E+000  6.156717146103200E+000  6.308788059611900E+000 
 6.464615124684300E+000  6.624291118264000E+000  6.787911108885100E+000  6.955572513274600E+000 
 7.127375154352500E+000  7.303421320665000E+000  7.483815827285400E+000  7.668666078219400E+000 
 7.858082130351400E+000  8.052176758971100E+000  8.251065524917600E+000  8.454866843383099E+000 
 8.663702054414699E+000  8.877695495158701E+000  9.096974573889099E+000  9.321669845864200E+000 
 9.551915091056999E+000  9.787847393806199E+000  1.002960722443300E+001  1.027733852287700E+001 
 1.053118878439200E+001  1.079130914736600E+001  1.105785448330600E+001  1.133098348904400E+001 
 1.161085878122300E+001  1.189764699311900E+001  1.219151887384900E+001  1.249264939003400E+001 
 1.280121782996700E+001  1.311740791036800E+001  1.344140788575400E+001  1.377341066053200E+001 
 1.411361390384700E+001  1.446222016727200E+001  1.481943700540300E+001  1.518547709943700E+001 
 1.556055838379300E+001  1.594490417587300E+001  1.633874330901700E+001  1.674231026875000E+001 
 1.715584533238800E+001  1.757959471209800E+001  1.801381070148600E+001  1.845875182581300E+001 
 1.891468299591100E+001  1.938187566591000E+001  1.986060799485800E+001  2.035116501233100E+001 
 2.085383878813500E+001  2.136892860620200E+001  2.189674114277500E+001  2.243759064900200E+001 
 2.299179913803200E+001  2.355969657674200E+001  2.414162108218700E+001  2.473791912291700E+001 
 2.534894572525300E+001  2.597506468466700E+001  2.661664878237800E+001  2.727408000730300E+001 
 2.794774978348300E+001  2.863805920313500E+001  2.934541926545300E+001  3.007025112131000E+001 
 3.081298632400600E+001  3.157406708620900E+001  3.235394654323800E+001  3.315308902285600E+001 
 3.397197032172100E+001  3.481107798866700E+001  3.567091161498700E+001  3.655198313187800E+001 
 3.745481711523500E+001  3.837995109798100E+001  3.932793589010100E+001  4.029933590658700E+001 
 4.129472950348000E+001  4.231470932221500E+001  4.335988264247400E+001  4.443087174374300E+001 
 4.552831427581400E+001  4.665286363842600E+001  4.780518937029500E+001  4.898597754774200E+001 
 5.019593119317100E+001  5.143577069364200E+001  5.270623422977500E+001  5.400807821525100E+001 
 5.534207774716700E+001  5.670902706752200E+001  5.810974003609000E+001  5.954505061498200E+001 
 6.101581336517200E+001  6.252290395529100E+001  6.406721968298700E+001  6.564968000915700E+001 
 6.727122710538301E+001  6.893282641488599E+001  7.063546722733400E+001  7.238016326784900E+001 
 7.416795330056500E+001  7.599990174708900E+001  7.787709932024200E+001
    </PP_R>
    <PP_RAB type="real" size="579" columns="4">
 1.425227034084995E-006  1.460430141826899E-006  1.496502766330008E-006  1.533466384658376E-006 
 1.571343004359440E-006  1.610155176567120E-006  1.649926009428327E-006  1.690679181861197E-006 
 1.732438957653157E-006  1.775230199907194E-006  1.819078385844897E-006  1.864009621975285E-006 
 1.910050659638069E-006  1.957228910931118E-006  2.005572465031131E-006  2.055110104917388E-006 
 2.105871324508843E-006  2.157886346224210E-006  2.211186138975952E-006  2.265802436608663E-006 
 2.321767756792904E-006  2.379115420385683E-006  2.437879571269222E-006  2.498095196679673E-006 
 2.559798148037472E-006  2.623025162294192E-006  2.687813883802623E-006  2.754202886732778E-006 
 2.822231698034873E-006  2.891940820976427E-006  2.963371759254484E-006  3.036567041708052E-006 
 3.111570247638362E-006  3.188426032754971E-006  3.267180155764074E-006  3.347879505611471E-006 
 3.430572129399936E-006  3.515307260996134E-006  3.602135350342694E-006  3.691108093496178E-006 
 3.782278463405583E-006  3.875700741451637E-006  3.971430549765673E-006  4.069524884344904E-006 
 4.170042148988033E-006  4.273042190068021E-006  4.378586332162750E-006  4.486737414567266E-006 
 4.597559828707089E-006  4.711119556476056E-006  4.827484209521116E-006  4.946723069496278E-006 
 5.068907129312825E-006  5.194109135406747E-006  5.322403631051465E-006  5.453867000738303E-006 
 5.588577515656650E-006  5.726615380293357E-006  5.868062780186489E-006  6.013003930857095E-006 
 6.161525127949272E-006  6.313714798609741E-006  6.469663554135235E-006  6.629464243922356E-006 
 6.793212010747230E-006  6.961004347412771E-006  7.132941154793813E-006  7.309124801317208E-006 
 7.489660183909809E-006  7.674654790452424E-006  7.864218763776570E-006  8.058464967241853E-006 
 8.257509051932772E-006  8.461469525515434E-006  8.670467822795692E-006  8.884628378018691E-006 
 9.104078698955706E-006  9.328949442820001E-006  9.559374494057570E-006  9.795491044060835E-006 
 1.003743967284922E-005  1.028536443276858E-005  1.053941293425800E-005  1.079973643373406E-005 
 1.106648992364740E-005  1.133983222476137E-005  1.161992608071307E-005  1.190693825490677E-005 
 1.220103962980288E-005  1.250240530865894E-005  1.281121471978295E-005  1.312765172336149E-005 
 1.345190472092860E-005  1.378416676753543E-005  1.412463568669349E-005  1.447351418815489E-005 
 1.483100998860243E-005  1.519733593532093E-005  1.557271013292317E-005  1.595735607320635E-005 
 1.635150276821463E-005  1.675538488658964E-005  1.716924289328836E-005  1.759332319275264E-005 
 1.802787827561354E-005  1.847316686902117E-005  1.892945409068610E-005  1.939701160672589E-005 
 1.987611779341216E-005  2.036705790290927E-005  2.087012423311122E-005  2.138561630166916E-005 
 2.191384102432020E-005  2.245511289762106E-005  2.300975418619236E-005  2.357809511459120E-005 
 2.416047406392164E-005  2.475723777329960E-005  2.536874154630011E-005  2.599534946249407E-005 
 2.663743459421853E-005  2.729537922869621E-005  2.796957509564495E-005  2.866042360050648E-005 
 2.936833606343841E-005  3.009373396420614E-005  3.083704919312108E-005  3.159872430819101E-005 
 3.237921279860476E-005  3.317897935472911E-005  3.399850014479131E-005  3.483826309836920E-005 
 3.569876819689866E-005  3.658052777136201E-005  3.748406680731345E-005  3.840992325745376E-005 
 3.935864836191303E-005  4.033080697645352E-005  4.132697790877085E-005  4.234775426311800E-005 
 4.339374379341805E-005  4.446556926511447E-005  4.556386882596161E-005  4.668929638596503E-005 
 4.784252200669643E-005  4.902423230026339E-005  5.023513083807837E-005  5.147593856978027E-005 
 5.274739425245288E-005  5.405025489048894E-005  5.538529618628292E-005  5.675331300208425E-005 
 5.815511983323557E-005  5.959155129311806E-005  6.106346261005751E-005  6.257173013652571E-005 
 6.411725187089763E-005  6.570094799210933E-005  6.732376140751328E-005  6.898665831428083E-005 
 7.069062877464173E-005  7.243668730537559E-005  7.422587348181891E-005  7.605925255681949E-005 
 7.793791609497236E-005  7.986298262251815E-005  8.183559829329649E-005  8.385693757114010E-005 
 8.592820392914631E-005  8.805063056619668E-005  9.022548114118147E-005  9.245405052537007E-005 
 9.473766557334496E-005  9.707768591300660E-005  9.947550475505918E-005  1.019325497225092E-004 
 1.044502837006551E-004  1.070302057080607E-004  1.096738517890491E-004  1.123827959282403E-004 
 1.151586509876674E-004  1.180030696670612E-004  1.209177454878390E-004  1.239044138013886E-004 
 1.269648528222836E-004  1.301008846869925E-004  1.333143765387607E-004  1.366072416392697E-004 
 1.399814405077601E-004  1.434389820883005E-004  1.469819249458821E-004  1.506123784920444E-004 
 1.543325042407986E-004  1.581445170955456E-004  1.620506866678073E-004  1.660533386285019E-004 
 1.701548560926254E-004  1.743576810381121E-004  1.786643157597534E-004  1.830773243590204E-004 
 1.875993342706869E-004  1.922330378271748E-004  1.969811938615040E-004  2.018466293498835E-004 
 2.068322410948253E-004  2.119409974498696E-004  2.171759400868813E-004  2.225401858070262E-004 
 2.280369283964609E-004  2.336694405278522E-004  2.394410757088914E-004  2.453552702788927E-004 
 2.514155454547877E-004  2.576255094275145E-004  2.639888595103860E-004  2.705093843402949E-004 
 2.771909661334822E-004  2.840375829969877E-004  2.910533112970254E-004  2.982423280860640E-004 
 3.056089135897855E-004  3.131574537554344E-004  3.208924428632146E-004  3.288184862019331E-004 
 3.369403028111074E-004  3.452627282905397E-004  3.537907176793325E-004  3.625293484060059E-004 
 3.714838233116433E-004  3.806594737474331E-004  3.900617627489959E-004  3.996962882888897E-004 
 4.095687866096342E-004  4.196851356388901E-004  4.300513584891589E-004  4.406736270438346E-004 
 4.515582656318266E-004  4.627117547929251E-004  4.741407351363276E-004  4.858520112941995E-004 
 4.978525559731548E-004  5.101495141057007E-004  5.227502071041145E-004  5.356621372195804E-004 
 5.488929920089067E-004  5.624506489115287E-004  5.763431799396318E-004  5.905788564841475E-004 
 6.051661542393098E-004  6.201137582490151E-004  6.354305680777684E-004  6.511257031092897E-004 
 6.672085079760739E-004  6.836885581230779E-004  7.005756655087296E-004  7.178798844467974E-004 
 7.356115175926341E-004  7.537811220771624E-004  7.723995157924806E-004  7.914777838325545E-004 
 8.110272850932154E-004  8.310596590350048E-004  8.515868326131802E-004  8.726210273787171E-004 
 8.941747667549898E-004  9.162608834938392E-004  9.388925273161304E-004  9.620831727408212E-004 
 9.858466271075229E-004  1.010197038797092E-003  1.035148905655371E-003  1.060717083625066E-003 
 1.086916795590609E-003  1.113763640441685E-003  1.141273602360593E-003  1.169463060338905E-003 
 1.198348797929271E-003  1.227948013238126E-003  1.258278329165102E-003  1.289357803895492E-003 
 1.321204941651717E-003  1.353838703710512E-003  1.387278519692164E-003  1.421544299128552E-003 
 1.456656443317023E-003  1.492635857466951E-003  1.529503963146384E-003  1.567282711036115E-003 
 1.605994593998694E-003  1.645662660470457E-003  1.686310528184092E-003  1.727962398230225E-003 
 1.770643069466524E-003  1.814377953282342E-003  1.859193088728429E-003  1.905115158020006E-003 
 1.952171502423097E-003  2.000390138532958E-003  2.049799774954723E-003  2.100429829396103E-003 
 2.152310446182170E-003  2.205472514202881E-003  2.259947685303695E-003  2.315768393130697E-003 
 2.372967872441015E-003  2.431580178890319E-003  2.491640209308886E-003  2.553183722478836E-003 
 2.616247360424028E-003  2.680868670226618E-003  2.747086126381128E-003  2.814939153702775E-003 
 2.884468150799182E-003  2.955714514124031E-003  3.028720662622903E-003  3.103530062989597E-003 
 3.180187255545385E-003  3.258737880757297E-003  3.339228706412029E-003  3.421707655460607E-003 
 3.506223834550394E-003  3.592827563263721E-003  3.681570404076308E-003  3.772505193056959E-003 
 3.865686071325608E-003  3.961168517287270E-003  4.059009379664370E-003  4.159266911342069E-003 
 4.262000804052210E-003  4.367272223912252E-003  4.475143847842820E-003  4.585679900884656E-003 
 4.698946194436414E-003  4.815010165438920E-003  4.933940916525439E-003  5.055809257163535E-003 
 5.180687745815397E-003  5.308650733137104E-003  5.439774406245634E-003  5.574136834079961E-003 
 5.711818013881616E-003  5.852899918824491E-003  5.997466546819492E-003  6.145603970526004E-003 
 6.297400388598010E-003  6.452946178196292E-003  6.612333948797762E-003  6.775658597333093E-003 
 6.943017364687101E-003  7.114509893595046E-003  7.290238287966799E-003  7.470307173679412E-003 
 7.654823760869291E-003  7.843897907762796E-003  8.037642186084522E-003  8.236171948080864E-003 
 8.439605395198618E-003  8.648063648459874E-003  8.861670820576850E-003  9.080554089845002E-003 
 9.304843775864411E-003  9.534673417128256E-003  9.770179850531295E-003  1.001150329283940E-002 
 1.025878742417252E-002  1.051217947354952E-002  1.077183030654615E-002  1.103789451511795E-002 
 1.131053050964122E-002  1.158990061322954E-002  1.187617115837615E-002  1.216951258598818E-002 
 1.247009954686190E-002  1.277811100566942E-002  1.309373034750957E-002  1.341714548709298E-002 
 1.374854898062417E-002  1.408813814044557E-002  1.443611515251470E-002  1.479268719678177E-002 
 1.515806657054228E-002  1.553247081483460E-002  1.591612284396108E-002  1.630925107820690E-002 
 1.671208957983870E-002  1.712487819246059E-002  1.754786268381449E-002  1.798129489210457E-002 
 1.842543287593969E-002  1.888054106797528E-002  1.934689043235416E-002  1.982475862603344E-002 
 2.031443016409642E-002  2.081619658914957E-002  2.133035664490161E-002  2.185721645403060E-002 
 2.239708970044530E-002  2.295029781604623E-002  2.351717017210256E-002  2.409804427535351E-002 
 2.469326596895410E-002  2.530318963838724E-002  2.592817842245546E-002  2.656860442949045E-002 
 2.722484895890014E-002  2.789730272818283E-002  2.858636610557034E-002  2.929244934837829E-002 
 3.001597284728312E-002  3.075736737661131E-002  3.151707435081384E-002  3.229554608727737E-002 
 3.309324607563321E-002  3.391064925370284E-002  3.474824229026823E-002  3.560652387483764E-002 
 3.648600501454580E-002  3.738720933840593E-002  3.831067340906458E-002  3.925694704226695E-002 
 4.022659363421313E-002  4.122019049697839E-002  4.223832920225150E-002  4.328161593354709E-002 
 4.435067184710683E-002  4.544613344173095E-002  4.656865293774019E-002  4.771889866530244E-002 
 4.889755546233636E-002  5.010532508225539E-002  5.134292661178662E-002  5.261109689909845E-002 
 5.391059099250570E-002  5.524218259002045E-002  5.660666449999504E-002  5.800484911314526E-002 
 5.943756888623900E-002  6.090567683772871E-002  6.241004705562050E-002  6.395157521789431E-002 
 6.553117912577816E-002  6.714979925018365E-002  6.880839929166370E-002  7.050796675416875E-002 
 7.224951353299604E-002  7.403407651726196E-002  7.586271820723618E-002  7.773652734695519E-002 
 7.965661957242465E-002  8.162413807586502E-002  8.364025428633892E-002  8.570616856720979E-002 
 8.782311093082186E-002  8.999234177081153E-002  9.221515261255024E-002  9.449286688208258E-002 
 9.682684069406937E-002  9.921846365921157E-002  1.016691597115944E-001  1.041803879564711E-001 
 1.067536435389967E-001  1.093904585344088E-001  1.120924028602101E-001  1.148610852108575E-001 
 1.176981540155647E-001  1.206052984197490E-001  1.235842492907161E-001  1.266367802481972E-001 
 1.297647087203290E-001  1.329698970257211E-001  1.362542534822548E-001  1.396197335432662E-001 
 1.430683409617846E-001  1.466021289835429E-001  1.502232015694362E-001  1.539337146482001E-001 
 1.577358774000103E-001  1.616319535717905E-001  1.656242628250132E-001  1.697151821167920E-001 
 1.739071471150772E-001  1.782026536488194E-001  1.826042591939446E-001  1.871145843960363E-001 
 1.917363146306179E-001  1.964722016019947E-001  2.013250649815618E-001  2.062977940866073E-001 
 2.113933496005474E-001  2.166147653356799E-001  2.219651500394706E-001  2.274476892454466E-001 
 2.330656471698080E-001  2.388223686549045E-001  2.447212811606754E-001  2.507658968053564E-001 
 2.569598144564472E-001  2.633067218735097E-001  2.698103979037869E-001  2.764747147320187E-001 
 2.833036401858901E-001  2.903012400984766E-001  2.974716807289080E-001  3.048192312429346E-001 
 3.123482662546146E-001  3.200632684311235E-001  3.279688311613701E-001  3.360696612910529E-001 
 3.443705819249385E-001  3.528765352984840E-001  3.615925857203414E-001  3.705239225876472E-001 
 3.796758634755598E-001  3.890538573034137E-001  3.986634875788065E-001  4.085104757220099E-001 
 4.186006844723405E-001  4.289401213788077E-001  4.395349423768443E-001  4.503914554535595E-001 
 4.615161244032727E-001  4.729155726760335E-001  4.845965873211320E-001  4.965661230279641E-001 
 5.088313062667408E-001  5.213994395315309E-001  5.342780056879550E-001  5.474746724284588E-001 
 5.609972968374332E-001  5.748539300693326E-001  5.890528221420323E-001  6.036024268489399E-001 
 6.185114067921076E-001  6.337886385398788E-001  6.494432179118071E-001  6.654844653942351E-001 
 6.819219316894635E-001  6.987654034021924E-001  7.160249088662404E-001  7.337107241152441E-001 
 7.518333790008819E-001  7.704036634622049E-001  7.894326339497126E-001  8.089316200082710E-001 
 8.289122310224865E-001  8.493863631287295E-001  8.703662062980072E-001  8.918642515935881E-001 
 9.138932986079402E-001  9.364664630835489E-001  9.595971847217094E-001  9.832992351843478E-001 
 1.007586726293409E+000  1.032474118432833E+000  1.057976229158130E+000  1.084108242018334E+000 
 1.110885715596200E+000  1.138324592771411E+000  1.166441210212862E+000  1.195252308105137E+000 
 1.224775040115329E+000  1.255026983606169E+000  1.286026150101243E+000  1.317790996008757E+000 