<UPF version="2.0.1">
  <PP_INFO>
    Generated using FHI98PP, converted with fhi2upf.x v.5.0.1
    Author: Abinit web site
    Generation date: 10-Jul-2012, PG
    Pseudopotential type: SL
    Element: Bi
    Functional: SLA-PW

    Suggested minimum cutoff for wavefunctions:   0. Ry
    Suggested minimum cutoff for charge density:   0. Ry
    The Pseudo was generated with a Non-Relativistic Calculation
    L component and cutoff radius for Local Potential:  0   0.0000

    Valence configuration: 
    nl pn  l   occ       Rcut    Rcut US       E pseu
    6s  6  0  2.00      0.000      0.000     0.000000
    6p  6  1  3.00      0.000      0.000     0.000000
    6d  6  2  0.00      0.000      0.000     0.000000
    5f  5  3  0.00      0.000      0.000     0.000000

    Generation configuration: not available.
    Comment:
    bismuth, fhi98PP : Trouiller-Martins-type, LDA Ceperley/Alder Perdew/Wang (1992)
  </PP_INFO>
  <!--                               -->
  <!-- END OF HUMAN READABLE SECTION -->
  <!--                               -->
  <PP_HEADER generated="Generated using FHI98PP, converted with fhi2upf.x v.5.0.1"
             author="Abinit web site"
             date="10-Jul-2012, PG"
             comment="bismuth, fhi98PP : Trouiller-Martins-type, LDA Ceperley/Alder Perdew/Wang (1992)"
             element="Bi"
             pseudo_type="SL"
             relativistic="no"
             is_ultrasoft="F"
             is_paw="F"
             is_coulomb="F"
             has_so="F"
             has_wfc="F"
             has_gipaw="F"
             paw_as_gipaw="F"
             core_correction="T"
             functional="SLA-PW"
             z_valence="5.000000000000000E+000"
             total_psenergy="0.000000000000000E+000"
             wfc_cutoff="0.000000000000000E+000"
             rho_cutoff="0.000000000000000E+000"
             l_max="3"
             l_max_rho="0"
             l_local="0"
             mesh_size="569"
             number_of_wfc="4"
             number_of_proj="3"/>
  <PP_MESH dx="2.439988682353512E-002" mesh="569" xmin="-5.075173815233828E+000" rmax="7.865894012136600E+001"
zmesh="8.300000000000000E+001">
    <PP_R type="real" size="569" columns="4">
 7.530120481927701E-005  7.716114457831300E-005  7.906702484939800E-005  8.101998036317800E-005 
 8.302117387814799E-005  8.507179687293800E-005  8.717307025569999E-005  8.932624509101600E-005 
 9.153260334476401E-005  9.379345864738000E-005  9.611015707597000E-005  9.848407795574600E-005 
 1.009166346812500E-004  1.034092755578800E-004  1.059634846641600E-004  1.085807827353600E-004 
 1.112627280689300E-004  1.140109174522300E-004  1.168269871133000E-004  1.197126136950000E-004 
 1.226695152532700E-004  1.256994522800200E-004  1.288042287513400E-004  1.319856932015000E-004 
 1.352457398235700E-004  1.385863095972200E-004  1.420093914442700E-004  1.455170234129400E-004 
 1.491112938912400E-004  1.527943428503500E-004  1.565683631187600E-004  1.604356016877900E-004 
 1.643983610494800E-004  1.684590005674000E-004  1.726199378814200E-004  1.768836503470900E-004 
 1.812526765106600E-004  1.857296176204700E-004  1.903171391757000E-004  1.950179725133400E-004 
 1.998349164344200E-004  2.047708388703500E-004  2.098286785904400E-004  2.150114469516300E-004 
 2.203222296913300E-004  2.257641887647100E-004  2.313405642272000E-004  2.370546761636100E-004 
 2.429099266648500E-004  2.489098018534700E-004  2.550578739592500E-004  2.613578034460500E-004 
 2.678133411911600E-004  2.744283307185900E-004  2.812067104873400E-004  2.881525162363700E-004 
 2.952698833874100E-004  3.025630495070800E-004  3.100363568299000E-004  3.176942548436000E-004 
 3.255413029382400E-004  3.335821731208200E-004  3.418216527969000E-004  3.502646476209800E-004 
 3.589161844172200E-004  3.677814141723300E-004  3.768656151023800E-004  3.861741957954100E-004 
 3.957126984315600E-004  4.054868020828200E-004  4.155023260942600E-004  4.257652335487900E-004 
 4.362816348174500E-004  4.470577911974400E-004  4.581001186400100E-004  4.694151915704200E-004 
 4.810097468022100E-004  4.928906875482300E-004  5.050650875306700E-004  5.175401951926700E-004 
 5.303234380139300E-004  5.434224269328800E-004  5.568449608781200E-004  5.705990314118100E-004 
 5.846928274876800E-004  5.991347403266301E-004  6.139333684126900E-004  6.290975226124900E-004 
 6.446362314210200E-004  6.605587463371200E-004  6.768745473716400E-004  6.935933486917200E-004 
 7.107251044044100E-004  7.282800144832000E-004  7.462685308409300E-004  7.647013635527000E-004 
 7.835894872324500E-004  8.029441475671000E-004  8.227768680119999E-004  8.430994566519000E-004 
 8.639240132312000E-004  8.852629363580100E-004  9.071289308860500E-004  9.295350154789400E-004 
 9.524945303612700E-004  9.760211452611900E-004  1.000128867549100E-003  1.024832050577600E-003 
 1.050145402226900E-003  1.076083993661900E-003  1.102663268305300E-003  1.129899051032500E-003 
 1.157807557593000E-003  1.186405404265500E-003  1.215709617750900E-003  1.245737645309300E-003 
 1.276507365148500E-003  1.308037097067600E-003  1.340345613365200E-003  1.373452150015300E-003 
 1.407376418120700E-003  1.442138615648300E-003  1.477759439454800E-003  1.514260097609300E-003 
 1.551662322020300E-003  1.589988381374200E-003  1.629261094394100E-003  1.669503843425700E-003 
 1.710740588358300E-003  1.752995880890700E-003  1.796294879148700E-003  1.840663362663700E-003 
 1.886127747721500E-003  1.932715103090200E-003  1.980453166136500E-003  2.029370359340100E-003 
 2.079495807215800E-003  2.130859353654000E-003  2.183491579689300E-003  2.237423821707600E-003 
 2.292688190103800E-003  2.349317588399400E-003  2.407345732832800E-003  2.466807172433800E-003 
 2.527737309592900E-003  2.590172421139800E-003  2.654149679942000E-003  2.719707177036600E-003 
 2.786883944309400E-003  2.855719977733800E-003  2.926256261183800E-003  2.998534790835100E-003 
 3.072598600168700E-003  3.148491785592900E-003  3.226259532697000E-003  3.305948143154600E-003 
 3.387605062290600E-003  3.471278907329100E-003  3.557019496340200E-003  3.644877877899800E-003 
 3.734906361483900E-003  3.827158548612500E-003  3.921689364763300E-003  4.018555092072900E-003 
 4.117813402847100E-003  4.219523393897400E-003  4.323745621726700E-003  4.430542138583400E-003 
 4.539976529406400E-003  4.652113949682700E-003  4.767021164239900E-003  4.884766586996600E-003 
 5.005420321695400E-003  5.129054203641300E-003  5.255741842471200E-003  5.385558665980300E-003 
 5.518581965030000E-003  5.654890939566200E-003  5.794566745773500E-003  5.937692544394100E-003 
 6.084353550240600E-003  6.234637082931600E-003  6.388632618880000E-003  6.546431844566300E-003 
 6.708128711127100E-003  6.873819490292000E-003  7.043602831702200E-003  7.217579821645200E-003 
 7.395854043239800E-003  7.578531638107900E-003  7.765721369569100E-003  7.957534687397501E-003 
 8.154085794176201E-003  8.355491713292400E-003  8.561872358610700E-003  8.773350605868400E-003 
 8.990052365833300E-003  9.212106659269401E-003  9.439645693753300E-003  9.672804942389000E-003 
 9.911723224466099E-003  1.015654278811000E-002  1.040740939497700E-002  1.066447240703300E-002 
 1.092788487548600E-002  1.119780363191100E-002  1.147438938161900E-002  1.175780679934500E-002 
 1.204822462728900E-002  1.234581577558300E-002  1.265075742524000E-002  1.296323113364300E-002 
 1.328342294264400E-002  1.361152348932700E-002  1.394772811951400E-002  1.429223700406600E-002 
 1.464525525806600E-002  1.500699306294100E-002  1.537766579159500E-002  1.575749413664800E-002 
 1.614670424182300E-002  1.654552783659600E-002  1.695420237416000E-002  1.737297117280100E-002 
 1.780208356077000E-002  1.824179502472100E-002  1.869236736183100E-002  1.915406883566800E-002 
 1.962717433590900E-002  2.011196554200600E-002  2.060873109089400E-002  2.111776674883900E-002 
 2.163937558753500E-002  2.217386816454800E-002  2.272156270821200E-002  2.328278530710500E-002 
 2.385787010419000E-002  2.444715949576400E-002  2.505100433530900E-002  2.566976414239100E-002 
 2.630380731670800E-002  2.695351135743100E-002  2.761926308795900E-002  2.830145888623200E-002 
 2.900050492072200E-002  2.971681739226400E-002  3.045082278185300E-002  3.120295810456400E-002 
 3.197367116974700E-002  3.276342084764000E-002  3.357267734257700E-002  3.440192247293800E-002 
 3.525164995802000E-002  3.612236571198300E-002  3.701458814506900E-002  3.792884847225200E-002 
 3.886569102951700E-002  3.982567359794600E-002  4.080936773581500E-002  4.181735911889000E-002 
 4.285024788912600E-002  4.390864901198800E-002  4.499319264258400E-002  4.610452450085600E-002 
 4.724330625602700E-002  4.841021592055100E-002  4.960594825378800E-002  5.083121517565700E-002 
 5.208674619049600E-002  5.337328882140100E-002  5.469160905528900E-002  5.604249179895500E-002 
 5.742674134638900E-002  5.884518185764500E-002  6.029865784952900E-002  6.178803469841200E-002 
 6.331419915546301E-002  6.487805987460300E-002  6.648054795350600E-002  6.812261748795700E-002 
 6.980524613991000E-002  7.152943571956499E-002  7.329621278183900E-002  7.510662923755000E-002 
 7.696176297971800E-002  7.886271852531700E-002  8.081062767289200E-002  8.280665017641201E-002 
 8.485197443577000E-002  8.694781820433301E-002  8.909542931398000E-002  9.129608641803599E-002 
 9.355109975256100E-002  9.586181191644901E-002  9.822959867078600E-002  1.006558697579500E-001 
 1.031420697409800E-001  1.056896788635800E-001  1.083002139315100E-001  1.109752292156200E-001 
 1.137163173772400E-001  1.165251104164600E-001  1.194032806437500E-001  1.223525416756500E-001 
 1.253746494550400E-001  1.284714032965700E-001  1.316446469580000E-001  1.348962697378600E-001 
 1.382282076003900E-001  1.416424443281200E-001  1.451410127030200E-001  1.487259957167900E-001 
 1.523995278109900E-001  1.561637961479200E-001  1.600210419127800E-001  1.639735616480200E-001 
 1.680237086207300E-001  1.721738942236600E-001  1.764265894109800E-001  1.807843261694400E-001 
 1.852496990258200E-001  1.898253665917600E-001  1.945140531465800E-001  1.993185502593000E-001 
 2.042417184507000E-001  2.092864888964300E-001  2.144558651721700E-001  2.197529250419300E-001 
 2.251808222904600E-001  2.307427886010400E-001  2.364421354794800E-001  2.422822562258300E-001 
 2.482666279546000E-001  2.543988136650800E-001  2.606824643626100E-001  2.671213212323700E-001 
 2.737192178668100E-001  2.804800825481200E-001  2.874079405870500E-001  2.945069167195500E-001 
 3.017812375625300E-001  3.092352341303200E-001  3.168733444133400E-001  3.247001160203500E-001 
 3.327202088860500E-001  3.409383980455400E-001  3.493595764772600E-001  3.579887580162500E-001 
 3.668310803392500E-001  3.758918080236300E-001  3.851763356818200E-001  3.946901911731600E-001 
 4.044390388951300E-001  4.144286831558400E-001  4.246650716297900E-001  4.351542988990500E-001 
 4.459026100818600E-001  4.569164045508800E-001  4.682022397432800E-001  4.797668350649400E-001 
 4.916170758910500E-001  5.037600176655600E-001  5.162028901019000E-001  5.289531014874100E-001 
 5.420182430941500E-001  5.554060936985800E-001  5.691246242129300E-001  5.831820024309901E-001 
 5.975865978910400E-001  6.123469868589400E-001  6.274719574343600E-001  6.429705147829901E-001 
 6.588518864981300E-001  6.751255280946300E-001  6.918011286385700E-001  7.088886165159400E-001 
 7.263981653438900E-001  7.443402000278800E-001  7.627254029685701E-001  7.815647204218900E-001 
 8.008693690163100E-001  8.206508424310200E-001  8.409209182390600E-001  8.616916649195701E-001 
 8.829754490430800E-001  9.047849426344400E-001  9.271331307175200E-001  9.500333190462400E-001 
 9.734991420266800E-001  9.975445708347400E-001  1.022183921734400E+000  1.047431864601200E+000 
 1.073303431656800E+000  1.099814026418800E+000  1.126979432871300E+000  1.154815824863200E+000 
 1.183339775737400E+000  1.212568268198100E+000  1.242518704422600E+000  1.273208916421800E+000 
 1.304657176657400E+000  1.336882208920900E+000  1.369903199481200E+000  1.403739808508400E+000 
 1.438412181778500E+000  1.473940962668500E+000  1.510347304446400E+000  1.547652882866200E+000 
 1.585879909073000E+000  1.625051142827100E+000  1.665189906054900E+000  1.706320096734500E+000 
 1.748466203123800E+000  1.791653318341000E+000  1.835907155304000E+000  1.881254062040000E+000 
 1.927721037372400E+000  1.975335746995500E+000  2.024126539946300E+000  2.074122465483000E+000 
 2.125353290380400E+000  2.177849516652800E+000  2.231642399714100E+000  2.286763966987100E+000 
 2.343247036971600E+000  2.401125238784800E+000  2.460433032182800E+000  2.521205728077700E+000 
 2.583479509561300E+000  2.647291453447400E+000  2.712679552347600E+000  2.779682737290600E+000 
 2.848340900901600E+000  2.918694921153900E+000  2.990786685706400E+000  3.064659116843400E+000 
 3.140356197029400E+000  3.217922995096000E+000  3.297405693074900E+000  3.378851613693800E+000 
 3.462309248552100E+000  3.547828286991300E+000  3.635459645680000E+000  3.725255498928300E+000 
 3.817269309751800E+000  3.911555861702700E+000  4.008171291486700E+000  4.107173122386500E+000 
 4.208620298509400E+000  4.312573219882600E+000  4.419093778413700E+000  4.528245394740500E+000 
 4.640093055990600E+000  4.754703354473600E+000  4.872144527329100E+000  4.992486497154100E+000 
 5.115800913633800E+000  5.242161196200600E+000  5.371642577746700E+000  5.504322149417100E+000 
 5.640278906507700E+000  5.779593795498400E+000  5.922349762247200E+000  6.068631801374700E+000 
 6.218527006868700E+000  6.372124623938300E+000  6.529516102149600E+000  6.690795149872700E+000 
 6.856057790074500E+000  7.025402417489400E+000  7.198929857201400E+000  7.376743424674200E+000 
 7.558948987263700E+000  7.745655027249100E+000  7.936972706422200E+000  8.133015932270800E+000 
 8.333901425797899E+000  8.539748791015100E+000  8.750680586153200E+000  8.966822396631100E+000 
 9.188302909827900E+000  9.415253991700700E+000  9.647810765295700E+000  9.886111691198501E+000 
 1.013029864997100E+001  1.038051702662500E+001  1.063691579718300E+001  1.089964761737300E+001 
 1.116886891352300E+001  1.144473997568700E+001  1.172742505308600E+001  1.201709245189700E+001 
 1.231391463545900E+001  1.261806832695500E+001  1.292973461463100E+001  1.324909905961200E+001 
 1.357635180638500E+001  1.391168769600200E+001  1.425530638209400E+001  1.460741244973100E+001 
 1.496821553724000E+001  1.533793046100900E+001  1.571677734339600E+001  1.610498174377800E+001 
 1.650277479285000E+001  1.691039333023300E+001  1.732808004549000E+001  1.775608362261300E+001 
 1.819465888809200E+001  1.864406696262800E+001  1.910457541660500E+001  1.957645842939500E+001 
 2.005999695260100E+001  2.055547887733000E+001  2.106319920560000E+001  2.158346022597800E+001 
 2.211657169356000E+001  2.266285101439100E+001  2.322262343444600E+001  2.379622223327700E+001 
 2.438398892243900E+001  2.498627344882300E+001  2.560343440300900E+001  2.623583923276400E+001 
 2.688386446181300E+001  2.754789591402000E+001  2.822832894309600E+001  2.892556866799000E+001 
 2.964003021409000E+001  3.037213896037800E+001  3.112233079269900E+001  3.189105236327900E+001 
 3.267876135665200E+001  3.348592676216100E+001  3.431302915318700E+001  3.516056097327000E+001 
 3.602902682931000E+001  3.691894379199400E+001  3.783084170365600E+001  3.876526349373700E+001 
 3.972276550203200E+001  4.070391780993200E+001  4.170930457983700E+001  4.273952440295900E+001 
 4.379519065571200E+001  4.487693186490800E+001  4.598539208197200E+001  4.712123126639600E+001 
 4.828512567867600E+001  4.947776828294000E+001  5.069986915952800E+001  5.195215592776900E+001 
 5.323537417918500E+001  5.455028792141000E+001  5.589768003306900E+001  5.727835272988600E+001 
 5.869312804231400E+001  6.014284830495900E+001  6.162837665809200E+001  6.315059756154700E+001 
 6.471041732131700E+001  6.630876462915300E+001  6.794659111549400E+001  6.962487191604600E+001 
 7.134460625237300E+001  7.310681802680600E+001  7.491255643206800E+001  7.676289657594000E+001 
 7.865894012136600E+001
    </PP_R>
    <PP_RAB type="real" size="569" columns="4">
 1.837340875266196E-006  1.882723194885268E-006  1.929226457798951E-006  1.976878351306581E-006 
 2.025707246583841E-006  2.075742215574456E-006  2.127013048299156E-006  2.179550270592150E-006 
 2.233385162275774E-006  2.288549775783994E-006  2.345076955245851E-006  2.403000356040413E-006 
 2.462354464834539E-006  2.523174620116029E-006  2.585497033232903E-006  2.649358809953640E-006 
 2.714797972559656E-006  2.781853482481817E-006  2.850565263499116E-006  2.920974225507581E-006 
 2.993122288877703E-006  3.067052409412842E-006  3.142808603925424E-006  3.220435976442429E-006 
 3.299980745060385E-006  3.381490269463567E-006  3.465013079119285E-006  3.550598902173446E-006 
 3.638298695057140E-006  3.728164672824963E-006  3.820250340243894E-006  3.914610523647836E-006 
 4.011301403581977E-006  4.110380548250399E-006  4.211906947792311E-006  4.315941049402755E-006 
 4.422544793322927E-006  4.531781649717922E-006  4.643716656466062E-006  4.758416457880780E-006 
 4.875949344390446E-006  4.996385293196887E-006  5.119796009938663E-006  5.246254971384297E-006 
 5.375837469177362E-006  5.508620654666143E-006  5.644683584836438E-006  5.784107269381853E-006 
 5.926974718935556E-006  6.073370994493220E-006  6.223383258057186E-006  6.377100824531358E-006 
 6.534615214897101E-006  6.696020210705263E-006  6.861411909909703E-006  7.030888784084295E-006 
 7.204551737051217E-006  7.382504164956406E-006  7.564852017830711E-006  7.751703862671165E-006 
 7.943170948079218E-006  8.139367270496907E-006  8.340409642078078E-006  8.546417760237322E-006 
 8.757514278915229E-006  8.973824881604549E-006  9.195478356180021E-006  9.422606671577695E-006 
 9.655345056365747E-006  9.893832079257994E-006  1.013820973161553E-005  1.038862351198648E-005 
 1.064522251273266E-005  1.090815950879713E-005  1.117759104866426E-005  1.145367754756631E-005 
 1.173658338299121E-005  1.202647699255122E-005  1.232353097426721E-005  1.262792218933142E-005 
 1.293983186740794E-005  1.325944571453306E-005  1.358695402368197E-005  1.392255178806693E-005 
 1.426643881723214E-005  1.461881985601788E-005  1.497990470646133E-005  1.534990835271108E-005 
 1.572905108902308E-005  1.611755865092198E-005  1.651566234959958E-005  1.692359920963470E-005 
 1.734161211011279E-005  1.776994992923260E-005  1.820886769248452E-005  1.865862672448886E-005 
 1.911949480458370E-005  1.959174632625712E-005  2.007566246051549E-005  2.057153132329032E-005 
 2.107964814697554E-005  2.160031545620582E-005  2.213384324797403E-005  2.268054917619910E-005 
 2.324075874085123E-005  2.381480548175017E-005  2.440303117714838E-005  2.500578604722486E-005 
 2.562342896259213E-005  2.625632765796804E-005  2.690485895111867E-005  2.756940896721274E-005 
 2.825037336870282E-005  2.894815759090863E-005  2.966317708340511E-005  3.039585755736405E-005 
 3.114663523903242E-005  3.191595712943486E-005  3.270428127053264E-005  3.351207701791430E-005 
 3.433982532025732E-005  3.518801900566814E-005  3.605716307510782E-005  3.694777500306216E-005 
 3.786038504563903E-005  3.879553655626628E-005  3.975378630920501E-005  4.073570483104398E-005 
 4.174187674037041E-005  4.277290109585633E-005  4.382939175292397E-005  4.491197772922186E-005 
 4.602130357913380E-005  4.715802977753790E-005  4.832283311304240E-005  4.951640709093525E-005 
 5.073946234608133E-005  5.199272706602879E-005  5.327694742456084E-005  5.459288802594687E-005 
 5.594133236018830E-005  5.732308326948583E-005  5.873896342624054E-005  6.018981582286941E-005 
 6.167650427369391E-005  6.319991392925307E-005  6.476095180330677E-005  6.636054731284924E-005 
 6.799965283147652E-005  6.967924425641296E-005  7.140032158954575E-005  7.316390953280899E-005 
 7.497105809826872E-005  7.682284323329676E-005  7.872036746115812E-005  8.066476053744833E-005 
 8.265718012272528E-005  8.469881247175469E-005  8.679087313980879E-005  8.893460770636198E-005 
 9.113129251670852E-005  9.338223544186993E-005  9.568877665728587E-005  9.805228944071951E-005 
 1.004741809899053E-004  1.029558932603554E-004  1.054989038238870E-004  1.081047267483382E-004 
 1.107749134990219E-004  1.135110538624468E-004  1.163147768928502E-004  1.191877518821030E-004 
 1.221316893535905E-004  1.251483420806248E-004  1.282395061300152E-004  1.314070219314281E-004 
 1.346527753731341E-004  1.379786989248495E-004  1.413867727882936E-004  1.448790260761643E-004 
 1.484575380202448E-004  1.521244392093462E-004  1.558819128578168E-004  1.597321961054040E-004 
 1.636775813492077E-004  1.677204176085347E-004  1.718631119234652E-004  1.761081307879737E-004 
 1.804580016184358E-004  1.849153142584130E-004  1.894827225205942E-004  1.941629457668539E-004 
 1.989587705272948E-004  2.038730521593201E-004  2.089087165476548E-004  2.140687618463822E-004 
 2.193562602639867E-004  2.247743598925076E-004  2.303262865818512E-004  2.360153458604228E-004 
 2.418449249031774E-004  2.478184945482758E-004  2.539396113636349E-004  2.602119197643184E-004 
 2.666391541824796E-004  2.732251412907989E-004  2.799738022806768E-004  2.868891551970097E-004 
 2.939753173303802E-004  3.012365076684397E-004  3.086770494078526E-004  3.163013725282161E-004 
 3.241140164296635E-004  3.321196326354687E-004  3.403229875615800E-004  3.487289653543511E-004 
 3.573425707985930E-004  3.661689322973370E-004  3.752133049250656E-004  3.844810735567294E-004 
 3.939777560735757E-004  4.037090066485924E-004  4.136806191128144E-004  4.238985304048826E-004 
 4.343688241059031E-004  4.450977340613185E-004  4.560916480926182E-004  4.673571118005003E-004 
 4.789008324619727E-004  4.907296830237846E-004  5.028507061944831E-004  5.152711186374848E-004 
 5.279983152678228E-004  5.410398736549597E-004  5.544035585342289E-004  5.680973264300285E-004 
 5.821293303928381E-004  5.965079248535535E-004  6.112416705974273E-004  6.263393398611805E-004 
 6.418099215557502E-004  6.576626266181849E-004  6.739068934956407E-004  6.905523937649931E-004 
 7.076090378909901E-004  7.250869811269016E-004  7.429966295607382E-004  7.613486463108695E-004 
 7.801539578747547E-004  7.994237606342671E-004  8.191695275219405E-004  8.394030148517167E-004 
 8.601362693185646E-004  8.813816351707308E-004  9.031517615594484E-004  9.254596100699619E-004 
 9.483184624386991E-004  9.717419284609331E-004  9.957439540939116E-004  1.020338829760040E-003 
 1.045541198855099E-003  1.071366066466834E-003  1.097828808308563E-003  1.124945179873789E-003 
 1.152731325816667E-003  1.181203789564343E-003  1.210379523166567E-003  1.240275897388792E-003 
 1.270910712054301E-003  1.302302206642037E-003  1.334469071146080E-003  1.367430457203397E-003 
 1.401205989496316E-003  1.435815777436880E-003  1.471280427139575E-003  1.507621053689914E-003 
 1.544859293716060E-003  1.583017318270848E-003  1.622117846032146E-003  1.662184156829125E-003 
 1.703240105502816E-003  1.745310136108716E-003  1.788419296470620E-003  1.832593253093434E-003 
 1.877858306444854E-003  1.924241406614041E-003  1.971770169357400E-003  2.020472892540517E-003 
 2.070378572986283E-003  2.121516923739032E-003  2.173918391755385E-003  2.227614176031760E-003 
 2.282636246179733E-003  2.339017361460366E-003  2.396791090288454E-003  2.455991830218471E-003 
 2.516654828425079E-003  2.578816202687124E-003  2.642512962893486E-003  2.707783033076997E-003 
 2.774665273993856E-003  2.843199506261558E-003  2.913426534066302E-003  2.985388169457724E-003 
 3.059127257243366E-003  3.134687700497045E-003  3.212114486699437E-003  3.291453714520850E-003 
 3.372752621269634E-003  3.456059611015003E-003  3.541424283406961E-003  3.628897463207245E-003 
 3.718531230548349E-003  3.810378951942858E-003  3.904495312056002E-003  4.000936346263647E-003 
 4.099759474016454E-003  4.201023533024611E-003  4.304788814290212E-003  4.411117098003395E-003 
 4.520071690323952E-003  4.631717461075009E-003  4.746120882363648E-003  4.863350068158017E-003 
 4.983474814841405E-003  5.106566642767932E-003  5.232698838844255E-003  5.361946500163889E-003 
 5.494386578717798E-003  5.630097927212266E-003  5.769161346014270E-003  5.911659631260989E-003 
 6.057677624152940E-003  6.207302261469552E-003  6.360622627327912E-003  6.517730006222996E-003 
 6.678717937376717E-003  6.843682270429917E-003  7.012721222509326E-003  7.185935436705303E-003 
 7.363428041992098E-003  7.545304714629194E-003  7.731673741080560E-003  7.922646082485262E-003 
 8.118335440722584E-003  8.318858326108543E-003  8.524334126763308E-003  8.734885179694401E-003 
 8.950636843632820E-003  9.171717573670562E-003  9.398258997740381E-003  9.630395994984544E-003 
 9.868266776060491E-003  1.011201296542919E-002  1.036177968567531E-002  1.061771564391159E-002 
 1.087997322031629E-002  1.114870855885806E-002  1.142408166026169E-002  1.170625647727018E-002 
 1.199540101225890E-002  1.229168741726172E-002  1.259529209646810E-002  1.290639581125069E-002 
 1.322518378778861E-002  1.355184582734709E-002  1.388657641928245E-002  1.422957485683874E-002 
 1.458104535580277E-002  1.494119717609088E-002  1.531024474634043E-002  1.568840779157507E-002 
 1.607591146402698E-002  1.647298647718835E-002  1.687986924317497E-002  1.729680201348133E-002 
 1.772403302321447E-002  1.816181663888777E-002  1.861041350986833E-002  1.907009072356198E-002 
 1.954112196443395E-002  2.002378767695564E-002  2.051837523257630E-002  2.102517910082106E-002 
 2.154450102461125E-002  2.207665019991905E-002  2.262194345985728E-002  2.318070546331569E-002 
 2.375326888825953E-002  2.433997462979957E-002  2.494117200315664E-002  2.555721895163364E-002 
 2.618848225973778E-002  2.683533777155519E-002  2.749817061451152E-002  2.817737542868943E-002 
 2.887335660177999E-002  2.958652850984362E-002  3.031731576403693E-002  3.106615346340770E-002 
 3.183348745395342E-002  3.261977459406760E-002  3.342548302653994E-002  3.425109245729582E-002 
 3.509709444098963E-002  3.596399267368380E-002  3.685230329272350E-002  3.776255518405314E-002 
 3.869529029709937E-002  3.965106396743764E-002  4.063044524743264E-002  4.163401724504530E-002 
 4.266237747099690E-002  4.371613819453154E-002  4.479592680793592E-002  4.590238620009172E-002 
 4.703617513923428E-002  4.819796866517340E-002  4.938845849120346E-002  5.060835341593684E-002 
 5.185837974530974E-002  5.313928172501898E-002  5.445182198362637E-002  5.579678198662344E-002 
 5.717496250169105E-002  5.858718407548286E-002  6.003428752214767E-002  6.151713442394435E-002 
 6.303660764421774E-002  6.459361185302835E-002  6.618907406579937E-002  6.782394419522494E-002 
 6.949919561684510E-002  7.121582574858193E-002  7.297485664457187E-002  7.477733560369405E-002 
 7.662433579310451E-002  7.851695688719357E-002  8.045632572230794E-002  8.244359696764773E-002 
 8.447995381275017E-002  8.656660867192420E-002  8.870480390612109E-002  9.089581256260239E-002 
 9.314093913289795E-002  9.544152032948128E-002  9.779892588161807E-002  1.002145593508959E-001 
 1.026898589668620E-001  1.052262984833439E-001  1.078253880558825E-001  1.104886751408623E-001 
 1.132177454168418E-001  1.160142237286386E-001  1.188797750547361E-001  1.218161054985873E-001 
 1.248249633044023E-001  1.279081398980221E-001  1.310674709535019E-001  1.343048374860548E-001 
 1.376221669719603E-001  1.410214344961667E-001  1.445046639282218E-001  1.480739291272487E-001 
 1.517313551766929E-001  1.554791196495558E-001  1.593194539049004E-001  1.632546444163516E-001 
 1.672870341334341E-001  1.714190238765314E-001  1.756530737662820E-001  1.799917046883074E-001 
 1.844374997941097E-001  1.889931060390239E-001  1.936612357581889E-001  1.984446682814155E-001 
 2.033462515879667E-001  2.083689040021893E-001  2.135156159310440E-001  2.187894516445388E-001 
 2.241935511001592E-001  2.297311318123344E-001  2.354054907680989E-001  2.412200063900708E-001 
 2.471781405479030E-001  2.532834406194293E-001  2.595395416027381E-001  2.659501682803155E-001 
 2.725191374368608E-001  2.792503601315509E-001  2.861478440267888E-001  2.932156957742449E-001 
 3.004581234598723E-001  3.078794391093351E-001  3.154840612553409E-001  3.232765175683384E-001 
 3.312614475522906E-001  3.394436053068149E-001  3.478278623579115E-001  3.564192105581343E-001 
 3.652227650589360E-001  3.742437673558714E-001  3.834875884095634E-001  3.929597318432825E-001 
 4.026658372198283E-001  4.126116833991483E-001  4.228031919791133E-001  4.332464308209827E-001 
 4.439476176622722E-001  4.549131238185334E-001  4.661494779768534E-001  4.776633700828781E-001 
 4.894616553239238E-001  5.015513582104187E-001  5.139396767582148E-001  5.266339867741350E-001 
 5.396418462474645E-001  5.529709998497785E-001  5.666293835460569E-001  5.806251293196489E-001 
 5.949665700138457E-001  6.096622442931817E-001  6.247209017272252E-001  6.401515079999042E-001 
 6.559632502474951E-001  6.721655425286136E-001  6.887680314290632E-001  7.057806018053495E-001 
 7.232133826699575E-001  7.410767532219048E-001  7.593813490264777E-001  7.781380683474399E-001 
 7.973580786356218E-001  8.170528231779143E-001  8.372340279104240E-001  8.579137083997940E-001 
 8.791041769972744E-001  9.008180501691082E-001  9.230682560082789E-001  9.458680419317005E-001 
 9.692309825674060E-001  9.931709878368163E-001  1.017702311236378E+000  1.042839558323917E+000 
 1.068597695414516E+000  1.094992058491252E+000  1.122038362336005E+000  1.149752709885687E+000 
 1.178151601819864E+000  1.207251946384832E+000  1.237071069460522E+000  1.267626724876213E+000 
 1.298937104980658E+000  1.331020851473659E+000  1.363897066505062E+000  1.397585324047742E+000 
 1.432105681551717E+000  1.467478691886041E+000  1.503725415575639E+000  1.540867433340360E+000 
 1.578926858943861E+000  1.617926352359762E+000  1.657889133263071E+000  1.698838994854651E+000 
 1.740800318027577E+000  1.783798085882843E+000  1.827857898604147E+000  1.873005988699668E+000 
 1.919269236620556E+000
    </PP_RAB>
  </PP_MESH>
  <PP_NLCC type="real" size="569" columns="4">