<UPF version="2.0.1">
  <PP_INFO>
    Generated using FHI98PP, converted with fhi2upf.x v.5.0.1
    Author: Abinit web site
    Generation date: 10-Jul-2012, PG
    Pseudopotential type: SL
    Element: Bk
    Functional: SLA-PW

    Suggested minimum cutoff for wavefunctions:   0. Ry
    Suggested minimum cutoff for charge density:   0. Ry
    The Pseudo was generated with a Non-Relativistic Calculation
    L component and cutoff radius for Local Potential:  0   0.0000

    Valence configuration: 
    nl pn  l   occ       Rcut    Rcut US       E pseu
    7s  7  0  2.00      0.000      0.000     0.000000
    7p  7  1  0.00      0.000      0.000     0.000000
    6d  6  2  0.00      0.000      0.000     0.000000
    5f  5  3  9.00      0.000      0.000     0.000000

    Generation configuration: not available.
    Comment:
    berkelium, fhi98PP : Trouiller-Martins-type, LDA Ceperley/Alder Perdew/Wang (199
  </PP_INFO>
  <!--                               -->
  <!-- END OF HUMAN READABLE SECTION -->
  <!--                               -->
  <PP_HEADER generated="Generated using FHI98PP, converted with fhi2upf.x v.5.0.1"
             author="Abinit web site"
             date="10-Jul-2012, PG"
             comment="berkelium, fhi98PP : Trouiller-Martins-type, LDA Ceperley/Alder Perdew/Wang (199"
             element="Bk"
             pseudo_type="SL"
             relativistic="no"
             is_ultrasoft="F"
             is_paw="F"
             is_coulomb="F"
             has_so="F"
             has_wfc="F"
             has_gipaw="F"
             paw_as_gipaw="F"
             core_correction="T"
             functional="SLA-PW"
             z_valence="1.100000000000000E+001"
             total_psenergy="0.000000000000000E+000"
             wfc_cutoff="0.000000000000000E+000"
             rho_cutoff="0.000000000000000E+000"
             l_max="3"
             l_max_rho="0"
             l_local="0"
             mesh_size="575"
             number_of_wfc="4"
             number_of_proj="3"/>
  <PP_MESH dx="2.439988682353512E-002" mesh="575" xmin="-5.075173815233821E+000" rmax="7.791747415798700E+001"
zmesh="9.700000000000000E+001">
    <PP_R type="real" size="575" columns="4">
 6.443298969072200E-005  6.602448453608200E-005  6.765528930412399E-005  6.932637494993600E-005 
 7.103873641119899E-005  7.279339320055600E-005  7.459139001260901E-005  7.643379734592100E-005 
 7.832171214036500E-005  8.025625843023201E-005  8.223858801345900E-005  8.426988113739100E-005 
 8.635134720148500E-005  8.848422547736100E-005  9.066978584665200E-005  9.290932955706400E-005 
 9.520418999712400E-005  9.755573349005299E-005  9.996536010725700E-005  1.024345045019100E-004 
 1.049646367631000E-004  1.075572632911500E-004  1.102139276944400E-004  1.129362117085000E-004 
 1.157257361377000E-004  1.185841618203000E-004  1.215131906172600E-004  1.245145664255000E-004 
 1.275900762162100E-004  1.307415510987600E-004  1.339708674108900E-004  1.372799478359400E-004 
 1.406707625474900E-004  1.441453303824100E-004  1.477057200428600E-004  1.513540513279200E-004 
 1.550924963957200E-004  1.589232810566900E-004  1.628486860987900E-004  1.668710486454300E-004 
 1.709927635469800E-004  1.752162848065900E-004  1.795441270413100E-004  1.839788669792300E-004 
 1.885231449936200E-004  1.931796666749600E-004  1.979512044418300E-004  2.028405991915400E-004 
 2.078507619915700E-004  2.129846758127700E-004  2.182453973053400E-004  2.236360586187800E-004 
 2.291598692666700E-004  2.348201180375500E-004  2.406201749530800E-004  2.465634932744200E-004 
 2.526536115583000E-004  2.588941557637900E-004  2.652888414111600E-004  2.718414757940100E-004 
 2.785559602461200E-004  2.854362924642000E-004  2.924865688880700E-004  2.997109871396000E-004 
 3.071138485219500E-004  3.146995605804400E-004  3.224726397267800E-004  3.304377139280300E-004 
 3.385995254620500E-004  3.469629337409700E-004  3.555329182043700E-004  3.643145812840200E-004 
 3.733131514417300E-004  3.825339862823400E-004  3.919825757435200E-004  4.016645453643800E-004 
 4.115856596348800E-004  4.217518254278600E-004  4.321690955159300E-004  4.428436721751800E-004 
 4.537819108779000E-004  4.649903240765900E-004  4.764755850812800E-004  4.882445320327900E-004 
 5.003041719740000E-004  5.126616850217500E-004  5.253244286417900E-004  5.382999420292400E-004 
 5.515959505973600E-004  5.652203705771199E-004  5.791813137303700E-004  5.934870921795100E-004 
 6.081462233563500E-004  6.231674350732500E-004  6.385596707195600E-004  6.543320945863300E-004 
 6.704940973226200E-004  6.870553015264800E-004  7.040255674741900E-004  7.214149989908000E-004 
 7.392339494658700E-004  7.574930280176800E-004  7.762031058097200E-004  7.953753225232200E-004 
 8.150210929895400E-004  8.351521139863800E-004  8.557803712018500E-004  8.769181463705300E-004 
 8.985780245858800E-004  9.207729017931500E-004  9.435159924674500E-004  9.668208374813900E-004 
 9.907013121671800E-004  1.015171634577700E-003  1.040246373951800E-003  1.065940459388400E-003 
 1.092269188735300E-003  1.119248237697000E-003  1.146893669168200E-003  1.175221942796600E-003 
 1.204249924783700E-003  1.233994897925800E-003  1.264474571904600E-003  1.295707093830700E-003 
 1.327711059048300E-003  1.360505522206800E-003  1.394110008605300E-003  1.428544525817800E-003 
 1.463829575605500E-003  1.499986166123000E-003  1.537035824426200E-003  1.575000609289500E-003 
 1.613903124339000E-003  1.653766531510200E-003  1.694614564838500E-003  1.736471544590000E-003 
 1.779362391741400E-003  1.823312642817400E-003  1.868348465095000E-003  1.914496672182800E-003 
 1.961784739985700E-003  2.010240823063400E-003  2.059893771393000E-003  2.110773147546400E-003 
 2.162909244290800E-003  2.216333102624800E-003  2.271076530259700E-003  2.327172120557100E-003 
 2.384653271934800E-003  2.443554207751600E-003  2.503909996683100E-003  2.565756573601200E-003 
 2.629130760969100E-003  2.694070290765000E-003  2.760613826946900E-003  2.828800988472500E-003 
 2.898672372887800E-003  2.970269580498100E-003  3.043635239136400E-003  3.118813029543100E-003 
 3.195847711372800E-003  3.274785149843700E-003  3.355672343044900E-003  3.438557449918100E-003 
 3.523489818931000E-003  3.610520017458600E-003  3.699699861889900E-003  3.791082448478500E-003 
 3.884722184956000E-003  3.980674822924400E-003  4.078997491050600E-003  4.179748729079600E-003 
 4.282988522687800E-003  4.388778339198200E-003  4.497181164176400E-003  4.608261538931600E-003 
 4.722085598943200E-003  4.838721113237100E-003  4.958237524734000E-003  5.080705991595000E-003 
 5.206199429587300E-003  5.334792555498200E-003  5.466561931619000E-003  5.601586011329900E-003 
 5.739945185809800E-003  5.881721831899300E-003  6.027000361147200E-003  6.175867270067500E-003 
 6.328411191638200E-003  6.484722948071700E-003  6.644895604889000E-003  6.809024526329800E-003 
 6.977207432130200E-003  7.149544455703800E-003  7.326138203759700E-003  7.507093817392500E-003 
 7.692519034682100E-003  7.882524254838799E-003  8.077222603933299E-003  8.276730002250401E-003 
 8.481165233306000E-003  8.690650014568700E-003  8.905309069928501E-003  9.125270203955701E-003 
 9.350664377993499E-003  9.581625788129900E-003  9.818291945096700E-003  1.006080375614100E-002 
 1.030930560891700E-002  1.056394545745800E-002  1.082487491025700E-002  1.109224932054000E-002 
 1.136622787875700E-002  1.164697370736300E-002  1.193465395793500E-002  1.222943991069600E-002 
 1.253150707649000E-002  1.284103530127900E-002  1.315820887322100E-002  1.348321663238900E-002 
 1.381625208320900E-002  1.415751350966400E-002  1.450720409335300E-002  1.486553203445900E-002 
 1.523271067571000E-002  1.560895862940000E-002  1.599449990754600E-002  1.638956405526300E-002 
 1.679438628742800E-002  1.720920762872700E-002  1.763427505715700E-002  1.806984165106800E-002 
 1.851616673985000E-002  1.897351605832400E-002  1.944216190496500E-002  1.992238330401700E-002 
 2.041446617162700E-002  2.091870348606600E-002  2.143539546217200E-002  2.196484973008700E-002 
 2.250738151842000E-002  2.306331384192500E-002  2.363297769382100E-002  2.421671224285800E-002 
 2.481486503525700E-002  2.542779220162800E-002  2.605585866900800E-002  2.669943837813200E-002 
 2.735891450607200E-002  2.803467969437200E-002  2.872713628282300E-002  2.943669654900900E-002 
 3.016378295377000E-002  3.090882839272800E-002  3.167227645402800E-002  3.245458168244300E-002 
 3.325620984999900E-002  3.407763823329400E-002  3.491935589765600E-002  3.578186398832800E-002 
 3.666567602884000E-002  3.757131822675200E-002  3.849932978695300E-002  3.945026323269100E-002 
 4.042468473453800E-002  4.142317444748100E-002  4.244632685633400E-002  4.349475112968600E-002 
 4.456907148258900E-002  4.566992754820900E-002  4.679797475865000E-002  4.795388473518800E-002 
 4.913834568814700E-002  5.035206282664500E-002  5.159575877846300E-002  5.287017402029100E-002 
 5.417606731859200E-002  5.551421618136100E-002  5.688541732104100E-002  5.829048712887100E-002 
 5.973026216095400E-002  6.120559963632900E-002  6.271737794734700E-002  6.426649718264600E-002 
 6.585387966305700E-002  6.748047049073500E-002  6.914723811185600E-002  7.085517489321901E-002 
 7.260529771308100E-002  7.439864856659401E-002  7.623629518618900E-002  7.811933167728800E-002 
 8.004887916971699E-002  8.202608648520900E-002  8.405213082139400E-002  8.612821845268200E-002 
 8.825558544846400E-002  9.043549840904100E-002  9.266925521974401E-002  9.495818582367201E-002 
 9.730365301351600E-002  9.970705324295000E-002  1.021698174580500E-001  1.046934119492600E-001 
 1.072793392244100E-001  1.099291389032500E-001  1.126443886341600E-001  1.154267050334300E-001 
 1.182777446477500E-001  1.211992049405500E-001  1.241928253025900E-001  1.272603880875600E-001 
 1.304037196733200E-001  1.336246915492500E-001  1.369252214305200E-001  1.403072743998500E-001 
 1.437728640775300E-001  1.473240538202500E-001  1.509629579496100E-001  1.546917430109600E-001 
 1.585126290633300E-001  1.624278910012000E-001  1.664398599089200E-001  1.705509244486800E-001 
 1.747635322825600E-001  1.790801915299400E-001  1.835034722607300E-001  1.880360080255700E-001 
 1.926804974238000E-001  1.974397057101700E-001  2.023164664412100E-001  2.073136831623000E-001 
 2.124343311364100E-001  2.176814591154800E-001  2.230581911556300E-001  2.285677284771800E-001 
 2.342133513705700E-001  2.399984211494200E-001  2.459263821518100E-001  2.520007637909600E-001 
 2.582251826566000E-001  2.646033446682100E-001  2.711390472815200E-001  2.778361817493700E-001 
 2.846987354385800E-001  2.917307942039100E-001  2.989365448207500E-001  3.063202774778200E-001 
 3.138863883315300E-001  3.216393821233100E-001  3.295838748617600E-001  3.377245965708500E-001 
 3.460663941061500E-001  3.546142340405700E-001  3.633732056213700E-001  3.723485238002200E-001 
 3.815455323380800E-001  3.909697069868300E-001  4.006266587494100E-001  4.105221372205200E-001 
 4.206620340098600E-001  4.310523862499100E-001  4.416993801902800E-001  4.526093548809800E-001 
 4.637888059465400E-001  4.752443894534200E-001  4.869829258729200E-001  4.990114041419800E-001 
 5.113369858242900E-001  5.239670093741500E-001  5.369089945056900E-001  5.501706466699799E-001 
 5.637598616427300E-001  5.776847302253000E-001  5.919535430618700E-001  6.065747955755000E-001 
 6.215571930262100E-001  6.369096556939600E-001  6.526413241896000E-001  6.687615648970801E-001 
 6.852799755500401E-001  7.022063909461300E-001  7.195508888025000E-001  7.373237957559200E-001 
 7.555356935110900E-001  7.741974251408100E-001  7.933201015417900E-001  8.129151080498700E-001 
 8.329941112187000E-001  8.535690657658100E-001  8.746522216902201E-001  8.962561315659699E-001 
 9.183936580156500E-001  9.410779813686400E-001  9.643226075084400E-001  9.881413759139001E-001 
 1.012548467899000E+000  1.037558415056100E+000  1.063186107908000E+000  1.089446804773300E+000 
 1.116356140851200E+000  1.143930137530200E+000  1.172185211927200E+000  1.201138186661800E+000 
 1.230806299872400E+000  1.261207215479200E+000  1.292359033701500E+000  1.324280301834000E+000 
 1.356990025289300E+000  1.390507678913900E+000  1.424853218583100E+000  1.460047093082100E+000 
 1.496110256281200E+000  1.533064179611400E+000  1.570930864847800E+000  1.609732857209500E+000 
 1.649493258782600E+000  1.690235742274500E+000  1.731984565108700E+000  1.774764583866900E+000 
 1.818601269088400E+000  1.863520720434900E+000  1.909549682229600E+000  1.956715559380700E+000 
 2.005046433697400E+000  2.054571080609700E+000  2.105318986300800E+000  2.157320365262400E+000 
 2.210606178284400E+000  2.265208150888000E+000  2.321158792214900E+000  2.378491414382600E+000 
 2.437240152317900E+000  2.497439984080100E+000  2.559126751686900E+000  2.622337182453600E+000 
 2.687108910860200E+000  2.753480500958400E+000  2.821491469332100E+000  2.891182308624600E+000 
 2.962594511647600E+000  3.035770596085300E+000  3.110754129808700E+000  3.187589756814900E+000 
 3.266323223808300E+000  3.347001407436300E+000  3.429672342200000E+000  3.514385249052300E+000 
 3.601190564703900E+000  3.690139971652100E+000  3.781286428951900E+000  3.874684203747000E+000 
 3.970388903579600E+000  4.068457509498000E+000  4.168948409982600E+000  4.271921435709200E+000 
 4.377437895171200E+000  4.485560611181900E+000  4.596353958278100E+000  4.709883901047600E+000 
 4.826218033403500E+000  4.945425618828500E+000  5.067577631613600E+000  5.192746799114400E+000 
 5.321007645052600E+000  5.452436533885400E+000  5.587111716272300E+000  5.725113375664300E+000 
 5.866523676043200E+000  6.011426810841400E+000  6.159909053069200E+000  6.312058806680000E+000 
 6.467966659205000E+000  6.627725435687400E+000  6.791430253948900E+000  6.959178581221400E+000 
 7.131070292177600E+000  7.307207728394400E+000  7.487695759285700E+000  7.672641844540000E+000 
 7.862156098100200E+000  8.056351353723301E+000  8.255343232160200E+000  8.459250209994600E+000 
 8.668193690181401E+000  8.882298074328901E+000  9.101690836764901E+000  9.326502600432899E+000 
 9.556867214663599E+000  9.792921834865799E+000  1.003480700418700E+001  1.028266673719000E+001 
 1.053664860559900E+001  1.079690382615700E+001  1.106358735066300E+001  1.133685795822500E+001 
 1.161687834979300E+001  1.190381524503300E+001  1.219783948158500E+001  1.249912611678000E+001 
 1.280785453186500E+001  1.312420853880200E+001  1.344837648971000E+001  1.378055138900600E+001 
 1.412093100831500E+001  1.446971800422000E+001  1.482712003892400E+001  1.519334990388600E+001 
 1.556862564651200E+001  1.595317069998000E+001  1.634721401627000E+001  1.675099020247200E+001 
 1.716473966047300E+001  1.758870873008600E+001  1.802314983572000E+001  1.846832163666200E+001 
 1.892448918108700E+001  1.939192406386000E+001  1.987090458823800E+001  2.036171593156700E+001 
 2.086465031507700E+001  2.138000717785900E+001  2.190809335515200E+001  2.244922326102500E+001 
 2.300371907557200E+001  2.357191093673900E+001  2.415413713687600E+001  2.475074432415700E+001 
 2.536208770896300E+001  2.598853127537500E+001  2.663044799787700E+001  2.728822006342400E+001 
 2.796223909899100E+001  2.865290640473600E+001  2.936063319293300E+001  3.008584083279800E+001 
 3.082896110136800E+001  3.159043644057200E+001  3.237072022065400E+001  3.317027701010400E+001 
 3.398958285225400E+001  3.482912554870500E+001  3.568940494975800E+001  3.657093325201700E+001 
 3.747423530334100E+001  3.839984891533400E+001  3.934832518354300E+001  4.032022881557600E+001 
 4.131613846732100E+001  4.233664708746400E+001  4.338236227052400E+001  4.445390661860600E+001 
 4.555191811208600E+001  4.667705048945400E+001  4.782997363654400E+001  4.901137398536600E+001 
 5.022195492280500E+001  5.146243720939800E+001  5.273355940847000E+001  5.403607832586000E+001 
 5.537076946050800E+001  5.673842746618300E+001  5.813986662459800E+001  5.957592133022500E+001 
 6.104744658708200E+001  6.255531851778300E+001  6.410043488517201E+001  6.568371562683500E+001 
 6.730610340281800E+001  6.896856415686800E+001  7.067208769154300E+001  7.241768825752401E+001 
 7.420640515748400E+001  7.603930336487400E+001  7.791747415798700E+001
    </PP_R>
    <PP_RAB type="real" size="575" columns="4">
 1.572157656155622E-006  1.610989950262646E-006  1.650781402034152E-006  1.691555702664399E-006 
 1.733337128520199E-006  1.776150555594657E-006  1.820021474317828E-006  1.864976004733491E-006 
 1.911040912050403E-006  1.958243622578047E-006  2.006612240055732E-006  2.056175562385098E-006 
 2.106963098776020E-006  2.159005087315771E-006  2.212332512972475E-006  2.266977126042888E-006 
 2.322971461056160E-006  2.380348856144248E-006  2.439143472891003E-006  2.499390316671503E-006 
 2.561125257493114E-006  2.624385051353229E-006  2.689207362121619E-006  2.755630783966202E-006 
 2.823694864330169E-006  2.893440127479095E-006  2.964908098627794E-006  3.038141328663746E-006 
 3.113183419481744E-006  3.190079049943178E-006  3.268874002476545E-006  3.349615190337741E-006 
 3.432350685539139E-006  3.517129747471883E-006  3.604002852234548E-006  3.693021722684773E-006 
 3.784239359235097E-006  3.877710071408099E-006  3.973489510171874E-006  4.071634701073116E-006 
 4.172204078189814E-006  4.275257518921092E-006  4.380856379638376E-006  4.489063532215435E-006 
 4.599943401461230E-006  4.713562003477264E-006  4.829986984963115E-006  4.949287663491626E-006 
 5.071535068779843E-006  5.196801984978906E-006  5.325162994007753E-006  5.456694519959698E-006 
 5.591474874602853E-006  5.729584304005379E-006  5.871105036314373E-006  6.016121330711311E-006 
 6.164719527579925E-006  6.316988099911149E-006  6.473017705979062E-006  6.632901243316606E-006 
 6.796733904026477E-006  6.964613231455952E-006  7.136639178273017E-006  7.312914165976230E-006 
 7.493543145875888E-006  7.678633661578971E-006  7.868295913020048E-006  8.062642822071608E-006 
 8.261790099776717E-006  8.465856315241383E-006  8.674962966227798E-006  8.889234551493675E-006 
 9.108798644915439E-006  9.333785971444832E-006  9.564330484939671E-006  9.800569447917561E-006 
 1.004264351328112E-005  1.029069680805913E-005  1.054487701921823E-005  1.080533548159308E-005 
 1.107222726798826E-005  1.134571128150771E-005  1.162595035016091E-005  1.191311132380994E-005 
 1.220736517350805E-005  1.250888709329351E-005  1.281785660449793E-005  1.313445766262897E-005 
 1.345887876689586E-005  1.379131307243831E-005  1.413195850532742E-005  1.448101788040900E-005 
 1.483869902205525E-005  1.520521488789997E-005  1.558078369563112E-005  1.596562905291313E-005 
 1.635998009052027E-005  1.676407159875591E-005  1.717814416724533E-005  1.760244432817622E-005 
 1.803722470308211E-005  1.848274415324831E-005  1.893926793383362E-005  1.940706785179931E-005 
 1.988642242773867E-005  2.037761706170377E-005  2.088094420312801E-005  2.139670352494514E-005 
 2.192520210201123E-005  2.246675459393088E-005  2.302168343240120E-005  2.359031901318136E-005 
 2.417299989280693E-005  2.477007299015904E-005  2.538189379301671E-005  2.600882656970399E-005 
 2.665124458597584E-005  2.730953032724794E-005  2.798407572633301E-005  2.867528239677211E-005 
 2.938356187197296E-005  3.010933585020930E-005  3.085303644571026E-005  3.161510644592068E-005 
 3.239599957513447E-005  3.319618076464047E-005  3.401612642952689E-005  3.485632475233497E-005 
 3.571727597371764E-005  3.659949269026955E-005  3.750350015971828E-005  3.842983661366266E-005 
 3.937905357802133E-005  4.035171620139911E-005  4.134840359157362E-005  4.236970916028522E-005 
 4.341624097654492E-005  4.448862212866527E-005  4.558749109524356E-005  4.671350212529494E-005 
 4.786732562778936E-005  4.904964857079705E-005  5.026117489049413E-005  5.150262591028916E-005 
 5.277474077027340E-005  5.407827686729957E-005  5.541401030592352E-005  5.678273636047947E-005 
 5.818526994858184E-005  5.962244611631206E-005  6.109512053538584E-005  6.260417001261054E-005 
 6.415049301192081E-005  6.573501018931435E-005  6.735866494099054E-005  6.902242396503328E-005 
 7.072727783697032E-005  7.247424159954278E-005  7.426435536705142E-005  7.609868494461833E-005 
 7.797832246275006E-005  7.990438702757978E-005  8.187802538716248E-005  8.390041261422517E-005 
 8.597275280579467E-005  8.809627980009789E-005  9.027225791116208E-005  9.250198268156581E-005 
 9.478678165380247E-005  9.712801516065106E-005  9.952707713511836E-005  1.019853959403570E-004 
 1.045044352200822E-004  1.070856947700185E-004  1.097307114308381E-004  1.124410600031808E-004 
 1.152183541852591E-004  1.180642475336351E-004  1.209804344477145E-004  1.239686511785748E-004 
 1.270306768626832E-004  1.301683345811938E-004  1.333834924453491E-004  1.366780647087471E-004 
 1.400540129070544E-004  1.435133470258586E-004  1.470581266973970E-004  1.506904624268218E-004 
 1.544125168487651E-004  1.582265060149305E-004  1.621347007134975E-004  1.661394278211220E-004 
 1.702430716883050E-004  1.744480755590057E-004  1.787569430253136E-004  1.831722395180372E-004 
 1.876965938341329E-004  1.923326997018372E-004  1.970833173844722E-004  2.019512753238674E-004 
 2.069394718243672E-004  2.120508767784301E-004  2.172885334348562E-004  2.226555602106963E-004 
 2.281551525479028E-004  2.337905848158351E-004  2.395652122607860E-004  2.454824730036374E-004 
 2.515458900868106E-004  2.577590735719731E-004  2.641257226891957E-004  2.706496280396103E-004 
 2.773346738521805E-004  2.841848402963464E-004  2.912042058516695E-004  2.983969497362058E-004 
 3.057673543946855E-004  3.133198080482269E-004  3.210588073070280E-004  3.289889598474979E-004 
 3.371149871557309E-004  3.454417273384711E-004  3.539741380037387E-004  3.627172992124354E-004 
 3.716764165029792E-004  3.808568239906019E-004  3.902639875431653E-004  3.999035080354965E-004 
 4.097811246839734E-004  4.199027184636561E-004  4.302743156097191E-004  4.409020912052603E-004 
 4.517923728580453E-004  4.629516444676318E-004  4.743865500859920E-004  4.861038978731005E-004 
 4.981106641505851E-004  5.104139975551000E-004  5.230212232947151E-004  5.359398475100788E-004 
 5.491775617435741E-004  5.627422475186410E-004  5.766419810323625E-004  5.908850379638525E-004 
 6.054798984015696E-004  6.204352518920922E-004  6.357600026138217E-004  6.514632746783709E-004 
 6.675544175629301E-004  6.840430116767349E-004  7.009388740651507E-004  7.182520642545665E-004 
 7.359928902416660E-004  7.541719146306322E-004  7.727999609219995E-004  7.918881199567853E-004 
 8.114477565197095E-004  8.314905161057469E-004  8.520283318535500E-004  8.730734316503302E-004 
 8.946383454121007E-004  9.167359125437710E-004  9.393792895836077E-004  9.625819580363291E-004 
 9.863577323998153E-004  1.010720768390088E-003  1.035685571369329E-003  1.061267004982165E-003 
 1.087480300005218E-003  1.114341063415348E-003  1.141865287681713E-003  1.170069360287436E-003 
 1.198970073486532E-003  1.228584634301668E-003  1.258930674768916E-003  1.290026262435707E-003 
 1.321889911117865E-003  1.354540591922470E-003  1.387997744542965E-003  1.422281288833183E-003 
 1.457411636667360E-003  1.493409704093030E-003  1.530296923784144E-003  1.568095257801601E-003 
 1.606827210669292E-003  1.646515842772835E-003  1.687184784089321E-003  1.728858248256331E-003 
 1.771561046988250E-003  1.815318604848857E-003  1.860156974388627E-003  1.906102851656029E-003 
 1.953183592091933E-003  2.001427226816603E-003  2.050862479318982E-003  2.101518782558150E-003 
 2.153426296487355E-003  2.206615926010591E-003  2.261119339383045E-003  2.316968987065814E-003 
 2.374198121046322E-003  2.432840814636171E-003  2.492931982757663E-003  2.554507402731684E-003 
 2.617603735579236E-003  2.682258547847972E-003  2.748510333979810E-003  2.816398539229264E-003 
 2.885963583148087E-003  2.957246883651859E-003  3.030290881678265E-003  3.105139066455621E-003 
 3.181836001397009E-003  3.260427350631490E-003  3.340959906192173E-003  3.423481615875027E-003 
 3.508041611787231E-003  3.594690239598497E-003  3.683479088516576E-003  3.774461022002804E-003 
 3.867690209246256E-003  3.963222157414779E-003  4.061113744702688E-003  4.161423254197081E-003 
 4.264210408575691E-003  4.369536405667529E-003  4.477463954887529E-003  4.588057314573250E-003 
 4.701382330243170E-003  4.817506473800229E-003  4.936498883703066E-003  5.058430406130339E-003 
 5.183373637161787E-003  5.311402965999700E-003  5.442594619259835E-003  5.577026706355698E-003 
 5.714779266002772E-003  5.855934313872966E-003  6.000575891425611E-003  6.148790115943831E-003 
 6.300665231807724E-003  6.456291663033180E-003  6.615762067110226E-003  6.779171390167763E-003 
 6.946616923504919E-003  7.118198361515420E-003  7.294017861044934E-003  7.474180102212681E-003 
 7.658792350737527E-003  7.847964521800529E-003  8.041809245489105E-003  8.240441933852798E-003 
 8.443980849618960E-003  8.652547176604504E-003  8.866265091866584E-003  9.085261839635742E-003 
 9.309667807074611E-003  9.539616601909341E-003  9.775245131976631E-003  1.001669368673644E-002 
 1.026410602079867E-002  1.051762943951255E-002  1.077741488666844E-002  1.104361703436916E-002 
 1.131639437511807E-002  1.159590931618350E-002  1.188232827629324E-002  1.217582178471766E-002 
 1.247656458280026E-002  1.278473572799542E-002  1.310051870047687E-002  1.342410151237864E-002 
 1.375567681973443E-002  1.409544203718174E-002  1.444359945550025E-002  1.480035636205115E-002 
 1.516592516419370E-002  1.554052351574934E-002  1.592437444658833E-002  1.631770649541899E-002 
 1.672075384585589E-002  1.713375646584863E-002  1.755696025055510E-002  1.799061716874377E-002 
 1.843498541281171E-002  1.889032955250807E-002  1.935692069245507E-002  1.983503663355865E-002 
 2.032496203840751E-002  2.082698860075637E-002  2.134141521919492E-002  2.186854817510907E-002 
 2.240870131503428E-002  2.296219623751571E-002  2.352936248458222E-002  2.411053773795143E-002 
 2.470606802007948E-002  2.531630790017532E-002  2.594162070531000E-002  2.658237873673048E-002 
 2.723896349152771E-002  2.791176588976785E-002  2.860118650724521E-002  2.930763581397412E-002 
 3.003153441858059E-002  3.077331331871835E-002  3.153341415768982E-002  3.231228948738653E-002 
 3.311040303772498E-002  3.392822999275567E-002  3.476625727357739E-002  3.562498382823469E-002 
 3.650492092879141E-002  3.740659247573388E-002  3.833053530988446E-002  3.927729953203762E-002 
 4.024744883047957E-002  4.124156081659168E-002  4.226022736876198E-002  4.330405498477077E-002 
 4.437366514289430E-002  4.546969467192419E-002  4.659279613031970E-002  4.774363819473929E-002 
 4.892290605814927E-002  5.013130183778493E-002  5.136954499317922E-002  5.263837275451001E-002 
 5.393854056154686E-002  5.527082251341647E-002  5.663601182949703E-002  5.803492132168542E-002 
 5.946838387833226E-002  6.093725296012580E-002  6.244240310824142E-002  6.398473046501581E-002 
 6.556515330750161E-002  6.718461259419574E-002  6.884407252527305E-002  7.054452111664722E-002 
 7.228697078822774E-002  7.407245896669708E-002  7.590204870317675E-002  7.777682930614341E-002 
 7.969791699000690E-002  8.166645553965848E-002  8.368361699148862E-002  8.575060233117741E-002 
 8.786864220875769E-002  9.003899767131433E-002  9.226296091379564E-002  9.454185604836610E-002 
 9.687703989276193E-002  9.926990277811276E-002  1.017218693767321E-001  1.042343995503382E-001 
 1.068089892192311E-001  1.094471712529454E-001  1.121505163828933E-001  1.149206341375515E-001 
 1.177591738007497E-001  1.206678253936265E-001  1.236483206808500E-001  1.267024342016656E-001 
 1.298319843264486E-001  1.330388343393119E-001  1.363248935474912E-001  1.396921184181160E-001 
 1.431425137430433E-001  1.466781338324948E-001  1.503010837381579E-001  1.540135205064901E-001 
 1.578176544630006E-001  1.617157505282376E-001  1.657101295662856E-001  1.698031697665719E-001 
 1.739973080598070E-001  1.782950415688845E-001  1.826989290956350E-001  1.872115926442958E-001 
 1.918357189826114E-001  1.965740612414825E-001  2.014294405541455E-001  2.064047477358339E-001 
 2.115029450049074E-001  2.167270677465291E-001  2.220802263198703E-001  2.275656079099687E-001 
 2.331864784253452E-001  2.389461844424514E-001  2.448481551981803E-001  2.508959046315652E-001 
 2.570930334759747E-001  2.634432314028241E-001  2.699502792184720E-001  2.766180511151834E-001 
 2.834505169777246E-001  2.904517447470772E-001  2.976259028423223E-001  3.049772626425240E-001 
 3.125102010298074E-001  3.202292029952420E-001  3.281388643092145E-001  3.362438942576561E-001 
 3.445491184458337E-001  3.530594816714365E-001  3.617800508687153E-001  3.707160181251866E-001 
 3.798727037728791E-001  3.892555595560486E-001  3.988701718770951E-001  4.087222651224625E-001 
 4.188177050709859E-001  4.291625023862226E-001  4.397628161951836E-001  4.506249577551977E-001 
 4.617553942117377E-001  4.731607524487713E-001  4.848478230342720E-001  4.968235642632068E-001 
 5.090951063005152E-001  5.216697554261281E-001  5.345549983851506E-001  5.477585068452820E-001 
 5.612881419643527E-001  5.751519590708813E-001  5.893582124599210E-001  6.039153603076851E-001 
 6.188320697072683E-001  6.341172218290528E-001  6.497799172082362E-001  6.658294811632660E-001 
 6.822754693480091E-001  6.991276734409030E-001  7.163961269748939E-001  7.340911113111628E-001 
 7.522231617605459E-001  7.708030738560364E-001  7.898419097802775E-001  8.093510049518465E-001 
 8.293419747741677E-001  8.498267215510976E-001  8.708174415734093E-001  8.923266323802720E-001 
 9.143671002000446E-001  9.369519675749974E-001  9.600946811741059E-001  9.838090197990940E-001 
 1.008109102588138E+000  1.033009397422070E+000  1.058524729538386E+000  1.084670290357985E+000 
 1.111461646529838E+000  1.138914749199112E+000  1.167045943504342E+000  1.195871978308884E+000 
 1.225410016173125E+000  1.255677643572594E+000  1.286692881368834E+000  1.318474195538663E+000 
 1.351040508168450E+000  1.384411208720222E+000  1.418606165575618E+000  1.453645737865322E+000 
 1.489550787590606E+000  1.526342692044096E+000  1.564043356537580E+000  1.602675227444039E+000 