<UPF version="2.0.1">
  <PP_INFO>
    Generated using FHI98PP, converted with fhi2upf.x v.5.0.1
    Author: Abinit web site
    Generation date: 10-Jul-2012, PG
    Pseudopotential type: SL
    Element: Ca
    Functional: SLA-PW

    Suggested minimum cutoff for wavefunctions:   0. Ry
    Suggested minimum cutoff for charge density:   0. Ry
    The Pseudo was generated with a Non-Relativistic Calculation
    L component and cutoff radius for Local Potential:  0   0.0000

    Valence configuration: 
    nl pn  l   occ       Rcut    Rcut US       E pseu
    4s  4  0  2.00      0.000      0.000     0.000000
    4p  4  1  0.00      0.000      0.000     0.000000
    3d  3  2  0.00      0.000      0.000     0.000000
    4f  4  3  0.00      0.000      0.000     0.000000

    Generation configuration: not available.
    Comment:
    calcium, fhi98PP : Trouiller-Martins-type, LDA Ceperley/Alder Perdew/Wang (1992)
  </PP_INFO>
  <!--                               -->
  <!-- END OF HUMAN READABLE SECTION -->
  <!--                               -->
  <PP_HEADER generated="Generated using FHI98PP, converted with fhi2upf.x v.5.0.1"
             author="Abinit web site"
             date="10-Jul-2012, PG"
             comment="calcium, fhi98PP : Trouiller-Martins-type, LDA Ceperley/Alder Perdew/Wang (1992)"
             element="Ca"
             pseudo_type="SL"
             relativistic="no"
             is_ultrasoft="F"
             is_paw="F"
             is_coulomb="F"
             has_so="F"
             has_wfc="F"
             has_gipaw="F"
             paw_as_gipaw="F"
             core_correction="T"
             functional="SLA-PW"
             z_valence="2.000000000000000E+000"
             total_psenergy="0.000000000000000E+000"
             wfc_cutoff="0.000000000000000E+000"
             rho_cutoff="0.000000000000000E+000"
             l_max="3"
             l_max_rho="0"
             l_local="0"
             mesh_size="511"
             number_of_wfc="4"
             number_of_proj="3"/>
  <PP_MESH dx="2.439988682353512E-002" mesh="511" xmin="-5.075173815233827E+000" rmax="7.928398797890900E+001"
zmesh="2.000000000000000E+001">
    <PP_R type="real" size="511" columns="4">
 3.125000000000000E-004  3.202187500000000E-004  3.281281531250000E-004  3.362329185071900E-004 
 3.445378715943100E-004  3.530479570226900E-004  3.617682415611600E-004  3.707039171277200E-004 
 3.798603038807700E-004  3.892428533866300E-004  3.988571518652700E-004  4.087089235163500E-004 
 4.188040339272000E-004  4.291484935652000E-004  4.397484613562600E-004  4.506102483517600E-004 
 4.617403214860500E-004  4.731453074267600E-004  4.848319965202000E-004  4.968073468342499E-004 
 5.090784883010500E-004  5.216527269620900E-004  5.345375493180500E-004  5.477406267862100E-004 
 5.612698202678300E-004  5.751331848284400E-004  5.893389744937001E-004  6.038956471637000E-004 
 6.188118696486400E-004  6.340965228289600E-004  6.497587069428401E-004  6.658077470043300E-004 
 6.822531983553300E-004  6.991048523547100E-004  7.163727422078700E-004  7.340671489404099E-004 
 7.521986075192299E-004  7.707779131249600E-004  7.898161275791500E-004  8.093245859303500E-004 
 8.293149032028300E-004  8.497989813119400E-004  8.707890161503500E-004  8.922975048492600E-004 
 9.143372532190400E-004  9.369213833735500E-004  9.600633415428700E-004  9.837769060789801E-004 
 1.008076195659100E-003  1.032975677691900E-003  1.058490176930900E-003  1.084634884301100E-003 
 1.111425365943300E-003  1.138877572482100E-003  1.167007848522400E-003  1.195832942380900E-003 
 1.225370016057800E-003  1.255636655454400E-003  1.286650880844100E-003  1.318431157601000E-003 
 1.350996407193700E-003  1.384366018451400E-003  1.418559859107100E-003  1.453598287627100E-003 
 1.489502165331500E-003  1.526292868815200E-003  1.563992302674900E-003  1.602622912551000E-003 
 1.642207698491000E-003  1.682770228643700E-003  1.724334653291200E-003  1.766925719227500E-003 
 1.810568784492400E-003  1.855289833469400E-003  1.901115492356100E-003  1.948073045017300E-003 
 1.996190449229200E-003  2.045496353325100E-003  2.096020113252300E-003  2.147791810049600E-003 
 2.200842267757800E-003  2.255203071771400E-003  2.310906587644200E-003  2.367985980359000E-003 
 2.426475234073900E-003  2.486409172355500E-003  2.547823478912700E-003  2.610754718841800E-003 
 2.675240360397200E-003  2.741318797299000E-003  2.809029371592300E-003  2.878412397070600E-003 
 2.949509183278300E-003  3.022362060105300E-003  3.097014402989900E-003  3.173510658743700E-003 
 3.251896372014700E-003  3.332218212403400E-003  3.414524002249800E-003  3.498862745105400E-003 
 3.585284654909500E-003  3.673841185885700E-003  3.764585063177100E-003  3.857570314237600E-003 
 3.952852300999300E-003  4.050487752833900E-003  4.150534800328900E-003  4.253053009897100E-003 
 4.358103419241500E-003  4.465748573696800E-003  4.576052563467100E-003  4.689081061784700E-003 
 4.804901364010800E-003  4.923582427701900E-003  5.045194913666100E-003  5.169811228033700E-003 
 5.297505565366100E-003  5.428353952830700E-003  5.562434295465600E-003  5.699826422563600E-003 
 5.840612135200900E-003  5.984875254940400E-003  6.132701673737400E-003  6.284179405078700E-003 
 6.439398636384100E-003  6.598451782702800E-003  6.761433541735600E-003  6.928440950216500E-003 
 7.099573441686800E-003  7.274932905696500E-003  7.454623748467200E-003  7.638752955054300E-003 
 7.827430153044100E-003  8.020767677824300E-003  8.218880639466601E-003  8.421886991261399E-003 
 8.629907599945599E-003  8.843066317664201E-003  9.061490055710501E-003  9.285308860086600E-003 
 9.514655988930700E-003  9.749667991857299E-003  9.990484791256200E-003  1.023724976560000E-002 
 1.049010983481100E-002  1.074921554773000E-002  1.101472117175900E-002  1.128678478470200E-002 
 1.156556836888400E-002  1.185123790759500E-002  1.214396348391300E-002  1.244391938196600E-002 
 1.275128419070000E-002  1.306624091021000E-002  1.338897706069300E-002  1.371968479409200E-002 
 1.405856100850600E-002  1.440580746541600E-002  1.476163090981200E-002  1.512624319328400E-002 
 1.549986140015800E-002  1.588270797674200E-002  1.627501086376800E-002  1.667700363210300E-002 
 1.708892562181600E-002  1.751102208467400E-002  1.794354433016600E-002  1.838674987512100E-002 
 1.884090259703600E-002  1.930627289118300E-002  1.978313783159500E-002  2.027178133603600E-002 
 2.077249433503600E-002  2.128557494511100E-002  2.181132864625600E-002  2.235006846381800E-002 
 2.290211515487400E-002  2.346779739920000E-002  2.404745199496000E-002  2.464142405923600E-002 
 2.525006723349900E-002  2.587374389416600E-002  2.651282536835200E-002  2.716769215495000E-002 
 2.783873415117700E-002  2.852635088471200E-002  2.923095175156400E-002  2.995295625982800E-002 
 3.069279427944500E-002  3.145090629814800E-002  3.222774368371200E-002  3.302376895270000E-002 
 3.383945604583100E-002  3.467529061016300E-002  3.553177028823400E-002  3.640940501435400E-002 
 3.730871731820800E-002  3.823024263596800E-002  3.917452962907600E-002  4.014214051091500E-002 
 4.113365138153400E-002  4.214965257065800E-002  4.319074898915300E-002  4.425756048918500E-002 
 4.535072223326800E-002  4.647088507243000E-002  4.761871593371900E-002  4.879489821728200E-002 
 5.000013220324900E-002  5.123513546866900E-002  5.250064331474500E-002  5.379740920461900E-002 
 5.512620521197300E-002  5.648782248070900E-002  5.788307169598300E-002  5.931278356687300E-002 
 6.077780932097500E-002  6.227902121120300E-002  6.381731303512000E-002  6.539360066708701E-002 
 6.700882260356400E-002  6.866394052187200E-002  7.035993985276300E-002  7.209783036712600E-002 
 7.387864677719400E-002  7.570344935259100E-002  7.757332455160000E-002  7.948938566802401E-002 
 8.145277349402399E-002  8.346465699932699E-002  8.552623402721000E-002  8.763873200768200E-002 
 8.980340868827200E-002  9.202155288287200E-002  9.429448523907900E-002  9.662355902448400E-002 
 9.901016093238900E-002  1.014557119074200E-001  1.039616679915300E-001  1.065295211909200E-001 
 1.091608003643400E-001  1.118570721333400E-001  1.146199418150300E-001  1.174510543778600E-001 
 1.203520954210000E-001  1.233247921778900E-001  1.263709145446900E-001  1.294922761339400E-001 
 1.326907353544500E-001  1.359681965177100E-001  1.393266109716900E-001  1.427679782626900E-001 
 1.462943473257800E-001  1.499078177047300E-001  1.536105408020400E-001  1.574047211598500E-001 
 1.612926177724900E-001  1.652765454314800E-001  1.693588761036300E-001  1.735420403433900E-001 
 1.778285287398700E-001  1.822208933997500E-001  1.867217494667200E-001  1.913337766785500E-001 
 1.960597209625100E-001  2.009023960702900E-001  2.058646852532200E-001  2.109495429789800E-001 
 2.161599966905600E-001  2.214991486088100E-001  2.269701775794500E-001  2.325763409656600E-001 
 2.383209765875200E-001  2.442075047092300E-001  2.502394300755400E-001  2.564203439984100E-001 
 2.627539264951700E-001  2.692439484796000E-001  2.758942740070500E-001  2.827088625750200E-001 
 2.896917714806300E-001  2.968471582362000E-001  3.041792830446300E-001  3.116925113358300E-001 
 3.193913163658300E-001  3.272802818800600E-001  3.353641048425000E-001  3.436475982321100E-001 
 3.521356939084400E-001  3.608334455479800E-001  3.697460316530200E-001  3.788787586348500E-001 
 3.882370639731300E-001  3.978265194532600E-001  4.076528344837600E-001  4.177218594955100E-001 
 4.280395894250500E-001  4.386121672838500E-001  4.494458878157600E-001  4.605472012448100E-001 
 4.719227171155500E-001  4.835792082283100E-001  4.955236146715500E-001  5.077630479539300E-001 
 5.203047952384000E-001  5.331563236807800E-001  5.463252848757000E-001  5.598195194121300E-001 
 5.736470615416100E-001  5.878161439616900E-001  6.023352027175400E-001  6.172128822246600E-001 
 6.324580404156100E-001  6.480797540138800E-001  6.640873239380199E-001  6.804902808392900E-001 
 6.972983907760200E-001  7.145216610281900E-001  7.321703460555899E-001  7.502549536031600E-001 
 7.687862509571600E-001  7.877752713558001E-001  8.072333205582900E-001  8.271719835760800E-001 
 8.476031315704000E-001  8.685389289201900E-001  8.899918404645200E-001  9.119746389240000E-001 
 9.345004125054200E-001  9.575825726943000E-001  9.812348622398500E-001  1.005471363337200E+000 
 1.030306506011600E+000  1.055755076710100E+000  1.081832227104800E+000  1.108553483114300E+000 
 1.135934754147200E+000  1.163992342574700E+000  1.192742953436300E+000  1.222203704386100E+000 
 1.252392135884500E+000  1.283326221640800E+000  1.315024379315400E+000  1.347505481484500E+000 
 1.380788866877100E+000  1.414894351889000E+000  1.449842242380600E+000  1.485653345767400E+000 
 1.522348983407900E+000  1.559951003298100E+000  1.598481793079500E+000  1.637964293368600E+000 
 1.678422011414800E+000  1.719879035096700E+000  1.762360047263600E+000  1.805890340431100E+000 
 1.850495831839700E+000  1.896203078886100E+000  1.943039294934600E+000  1.991032365519500E+000 
 2.040210864947800E+000  2.090604073312100E+000  2.142241993922900E+000  2.195155371172800E+000 
 2.249375708840700E+000  2.304935288849100E+000  2.361867190483700E+000  2.420205310088600E+000 
 2.479984381247800E+000  2.541239995464600E+000  2.604008623352600E+000  2.668327636349400E+000 
 2.734235328967200E+000  2.801770941592700E+000  2.870974683850100E+000  2.941887758541200E+000 
 3.014552386177100E+000  3.089011830115700E+000  3.165310422319600E+000  3.243493589750900E+000 
 3.323607881417700E+000  3.405700996088700E+000  3.489821810692100E+000  3.576020409416200E+000 
 3.664348113528800E+000  3.754857511932900E+000  3.847602492477700E+000  3.942638274041900E+000 
 4.040021439410700E+000  4.139809968964200E+000  4.242063275197600E+000  4.346842238095000E+000 
 4.454209241375900E+000  4.564228209637900E+000  4.676964646415900E+000  4.792485673182400E+000 
 4.910860069310000E+000  5.032158313022000E+000  5.156452623353600E+000  5.283817003150500E+000 
 5.414327283128300E+000  5.548061167021500E+000  5.685098277847000E+000  5.825520205309800E+000 
 5.969410554380900E+000  6.116854995074200E+000  6.267941313452500E+000  6.422759463894800E+000 
 6.581401622653000E+000  6.743962242732500E+000  6.910538110128000E+000  7.081228401448100E+000 
 7.256134742963900E+000  7.435361271115100E+000  7.619014694511700E+000  7.807204357466100E+000 
 8.000042305095500E+000  8.197643350031401E+000  8.400125140777099E+000  8.607608231754300E+000 
 8.820216155078700E+000  9.038075494109099E+000  9.261315958813601E+000  9.490070462996300E+000 
 9.724475203432300E+000  9.964669740957101E+000  1.021079708355900E+001  1.046300377152300E+001 
 1.072143996467900E+001  1.098625953180700E+001  1.125762014224200E+001  1.153568335975600E+001 
 1.182061473874200E+001  1.211258392278900E+001  1.241176474568200E+001  1.271833533490000E+001 
 1.303247821767200E+001  1.335438042964800E+001  1.368423362626100E+001  1.402223419682900E+001 
 1.436858338149100E+001  1.472348739101400E+001  1.508715752957200E+001  1.545981032055200E+001 
 1.584166763547000E+001  1.623295682606600E+001  1.663391085967000E+001  1.704476845790400E+001 
 1.746577423881400E+001  1.789717886251300E+001  1.833923918041700E+001  1.879221838817300E+001 
 1.925638618236100E+001  1.973201892106500E+001  2.021939978841600E+001  2.071881896318900E+001 
 2.123057379158000E+001  2.175496896423200E+001  2.229231669764900E+001  2.284293692008100E+001 
 2.340715746200700E+001  2.398531425131800E+001  2.457775151332600E+001  2.518482197570500E+001 
 2.580688707850500E+001  2.644431718934400E+001  2.709749182392100E+001  2.776679987197200E+001 
 2.845263982880900E+001  2.915542003258100E+001  2.987555890738600E+001  3.061348521239800E+001 
 3.136963829714400E+001  3.214446836308400E+001  3.293843673165200E+001  3.375201611892400E+001 
 3.458569091706100E+001  3.543995748271300E+001  3.631532443253600E+001  3.721231294601900E+001 
 3.813145707578600E+001  3.907330406555800E+001  4.003841467597700E+001  4.102736351847400E+001 
 4.204073939738000E+001  4.307914566049500E+001  4.414320055831000E+001  4.523353761210000E+001 
 4.635080599111900E+001  4.749567089909900E+001  4.866881397030700E+001  4.987093367537400E+001 
 5.110274573715500E+001  5.236498355686300E+001  5.365839865071800E+001  5.498376109739000E+001 
 5.634185999649600E+001  5.773350393840900E+001  5.915952148568800E+001  6.062076166638400E+001 
 6.211809447954400E+001  6.365241141318900E+001  6.522462597509499E+001  6.683567423667900E+001 
 6.848651539032500E+001  7.017813232046601E+001  7.191153218878200E+001  7.368774703384500E+001 
 7.550783438558101E+001  7.737287789490500E+001  7.928398797890900E+001
    </PP_R>
    <PP_RAB type="real" size="511" columns="4">
 7.624964632354726E-006  7.813301258773886E-006  8.006289799865602E-006  8.204045157922343E-006 
 8.406685073322839E-006  8.614330194633928E-006  8.827104150441620E-006  9.045133622957511E-006 
 9.268548423444446E-006  9.497481569503647E-006  9.732069364270147E-006  9.972451477567812E-006 
 1.021877102906364E-005  1.047117467348147E-005  1.072981268791645E-005  1.099483906130800E-005 
 1.126641158612234E-005  1.154469195229968E-005  1.182984584352145E-005  1.212204303585646E-005 
 1.242145749884197E-005  1.272826749906346E-005  1.304265570629024E-005  1.336480930223571E-005 
 1.369492009200095E-005  1.403318461827324E-005  1.437980427834453E-005  1.473498544401978E-005 
 1.509893958448698E-005  1.547188339222378E-005  1.585403891201182E-005  1.624563367313856E-005 
 1.664690082486491E-005  1.705807927523916E-005  1.747941383333753E-005  1.791115535502110E-005 
 1.835356089228992E-005  1.880689384632961E-005  1.927142412433404E-005  1.974742830020496E-005 
 2.023518977922003E-005  2.073499896676678E-005  2.124715344124604E-005  2.177195813124473E-005 
 2.230972549708655E-005  2.286077571686458E-005  2.342543687707097E-005  2.400404516793466E-005 
 2.459694508358189E-005  2.520448962714685E-005  2.582704052093763E-005  2.646496842180495E-005 
 2.711865314182263E-005  2.778848387442566E-005  2.847485942612378E-005  2.917818845394896E-005 
 2.989888970876374E-005  3.063739228456952E-005  3.139413587399781E-005  3.216957103008680E-005 
 3.296415943452885E-005  3.377837417256210E-005  3.461270001462316E-005  3.546763370498569E-005 
 3.634368425749910E-005  3.724137325865961E-005  3.816123517814765E-005  3.910381768704863E-005 
 4.006968198391849E-005  4.105940312892060E-005  4.207357038620495E-005  4.311278757474439E-005 
 4.417767342784011E-005  4.526886196150868E-005  4.638700285195809E-005  4.753276182240156E-005 
 4.870682103941421E-005  4.990987951908625E-005  5.114265354320938E-005  5.240587708572588E-005 
 5.370030224974270E-005  5.502669971531091E-005  5.638585919828022E-005  5.777858992047747E-005 
 5.920572109151405E-005  6.066810240247383E-005  6.216660453181541E-005  6.370211966375018E-005 
 6.527556201944499E-005  6.688786840132501E-005  6.853999875083811E-005  7.023293671998308E-005 
 7.196769025696802E-005  7.374529220631576E-005  7.556680092381176E-005  7.743330090662866E-005 
 7.934590343902314E-005  8.130574725396547E-005  8.331399921113931E-005  8.537185499165517E-005 
 8.748053980994897E-005  8.964130914325313E-005  9.185544947909206E-005  9.412427908122626E-005 
 9.644914877453330E-005  9.883144274926225E-005  1.012725793851691E-004  1.037740120959846E-004 
 1.063372301947540E-004  1.089637597805653E-004  1.116551646471450E-004  1.144130472139286E-004 
 1.172390494801130E-004  1.201348540022727E-004  1.231021848961279E-004  1.261428088630634E-004 
 1.292585362419803E-004  1.324512220871586E-004  1.357227672727110E-004  1.390751196243469E-004 
 1.425102750790678E-004  1.460302788735217E-004  1.496372267616970E-004  1.533332662627105E-004 
 1.571205979393984E-004  1.610014767085019E-004  1.649782131832029E-004  1.690531750488287E-004 
 1.732287884725336E-004  1.775075395478061E-004  1.818919757746368E-004  1.863847075762694E-004 
 1.909884098534022E-004  1.957058235767815E-004  2.005397574191290E-004  2.054930894273809E-004 
 2.105687687362382E-004  2.157698173240220E-004  2.210993318119252E-004  2.265604853076809E-004 
 2.321565292947797E-004  2.378907955683610E-004  2.437666982189002E-004  2.497877356649015E-004 
 2.559574927358411E-004  2.622796428063961E-004  2.687579499837157E-004  2.753962713483270E-004 
 2.821985592506273E-004  2.891688636641072E-004  2.963113345966205E-004  3.036302245611655E-004 
 3.111298911078126E-004  3.188147994181685E-004  3.266895249638172E-004  3.347587562304206E-004 
 3.430272975093102E-004  3.515000717577877E-004  3.601821235302105E-004  3.690786219813981E-004 
 3.781948639443358E-004  3.875362770837633E-004  3.971084231277438E-004  4.069170011789974E-004 
 4.169678511081199E-004  4.272669570304697E-004  4.378204508691358E-004  4.486346160056010E-004 
 4.597158910209274E-004  4.710708735291494E-004  4.827063241053140E-004  4.946291703107300E-004 
 5.068465108174028E-004  5.193656196345833E-004  5.321939504395759E-004  5.453391410154206E-004 
 5.588090177984941E-004  5.726116005381319E-004  5.867551070714179E-004  6.012479582160938E-004 
 6.160987827840282E-004  6.313164227187833E-004  6.469099383599396E-004  6.628886138374230E-004 
 6.792619625992008E-004  6.960397330754238E-004  7.132319144823773E-004  7.308487427701010E-004 
 7.489007067165043E-004  7.673985541724192E-004  7.863532984604717E-004  8.057762249324529E-004 
 8.256788976882677E-004  8.460731664611674E-004  8.669711736727576E-004  8.883853616624898E-004 
 9.103284800955400E-004  9.328135935539061E-004  9.558540893146776E-004  9.794636853207703E-004 
 1.003656438348179E-003  1.028446752375382E-003  1.053849387159047E-003  1.079879467021874E-003 
 1.106552489857317E-003  1.133884336356800E-003  1.161891279464812E-003  1.190589994067596E-003 
 1.219997566921069E-003  1.250131506824014E-003  1.281009755042564E-003  1.312650695992110E-003 
 1.345073168183113E-003  1.378296475437243E-003  1.412340398380554E-003  1.447225206220535E-003 
 1.482971668814188E-003  1.519601069033896E-003  1.557135215439041E-003  1.595596455260374E-003 
 1.635007687705304E-003  1.675392377591624E-003  1.716774569318155E-003  1.759178901180308E-003 
 1.802630620039461E-003  1.847155596354444E-003  1.892780339584398E-003  1.939532013972120E-003 
 1.987438454717227E-003  2.036528184548757E-003  2.086830430707102E-003  2.138375142345566E-003 
 2.191193008361507E-003  2.245315475668029E-003  2.300774767917031E-003  2.357603904684575E-003 
 2.415836721130290E-003  2.475507888142233E-003  2.536652932979266E-003  2.599308260423835E-003 
 2.663511174456408E-003  2.729299900465500E-003  2.796713608006913E-003  2.865792434124654E-003 
 2.936577507247700E-003  3.009110971676505E-003  3.083436012677064E-003  3.159596882190094E-003 
 3.237638925180230E-003  3.317608606632306E-003  3.399553539215943E-003  3.483522511634558E-003 
 3.569565517671970E-003  3.657733785958546E-003  3.748079810471800E-003  3.840657381790444E-003 
 3.935521619120465E-003  4.032729003112972E-003  4.132337409489679E-003  4.234406143504081E-003 
 4.338995975248591E-003  4.446169175837358E-003  4.555989554480447E-003  4.668522496476164E-003 
 4.783835002139121E-003  4.901995726692103E-003  5.023075021141248E-003  5.147144974163569E-003 
 5.274279455025390E-003  5.404554157564351E-003  5.538046645256249E-003  5.674836397394019E-003 
 5.815004856409851E-003  5.958635476363132E-003  6.105813772629107E-003  6.256627372813147E-003 
 6.411166068921614E-003  6.569521870823961E-003  6.731789061033408E-003  6.898064250840831E-003 
 7.068446437836772E-003  7.243037064851301E-003  7.421940080353027E-003  7.605262000337690E-003 
 7.793111971746153E-003  7.985601837448135E-003  8.182846202833167E-003  8.384962504043152E-003 
 8.592071077892942E-003  8.804295233516935E-003  9.021761325784923E-003  9.244598830531820E-003 
 9.472940421645938E-003  9.706922050060436E-003  9.946683024697039E-003  1.019236609540708E-002 
 1.044411753796366E-002  1.070208724115139E-002  1.096642879600781E-002  1.123729958726922E-002 
 1.151486088707460E-002  1.179927795098549E-002  1.209072011637485E-002  1.238936090324913E-002 
 1.269537811755958E-002  1.300895395706309E-002  1.333027511980266E-002  1.365953291526180E-002 
 1.399692337826877E-002  1.434264738571206E-002  1.469691077613906E-002  1.505992447230962E-002 
 1.543190460677569E-002  1.581307265056315E-002  1.620365554503199E-002  1.660388583699431E-002 
 1.701400181716805E-002  1.743424766205216E-002  1.786487357930494E-002  1.830613595671370E-002 
 1.875829751484457E-002  1.922162746346119E-002  1.969640166180872E-002  2.018290278285540E-002 
 2.068142048159171E-002  2.119225156748705E-002  2.171570018120401E-002  2.225207797567991E-002 
 2.280170430167913E-002  2.336490639793051E-002  2.394201958595941E-002  2.453338746973324E-002 
 2.513936214023495E-002  2.576030438509908E-002  2.639658390341006E-002  2.704857952582457E-002 
 2.771667944011187E-002  2.840128142228420E-002  2.910279307341474E-002  2.982163206232622E-002 
 3.055822637426722E-002  3.131301456571046E-002  3.208644602548528E-002  3.287898124231500E-002 
 3.369109207899854E-002  3.452326205335068E-002  3.537598662606702E-002  3.624977349573085E-002 
 3.714514290107650E-002  3.806262793073371E-002  3.900277484062128E-002  3.996614337918552E-002 
 4.095330712065130E-002  4.196485380653027E-002  4.300138569555185E-002  4.406351992223415E-002 
 4.515188886431216E-002  4.626714051925968E-002  4.740993889008572E-002  4.858096438067121E-002 
 4.978091420087302E-002  5.101050278163675E-002  5.227046220034297E-002  5.356154261669155E-002 
 5.488451271932217E-002  5.624016018349028E-002  5.762929214002315E-002  5.905273565588056E-002 
 6.051133822658109E-002  6.200596828077715E-002  6.353751569731293E-002  6.510689233503633E-002 
 6.671503257571100E-002  6.836289388033132E-002  7.005145735917696E-002  7.178172835594870E-002 
 7.355473704633898E-002  7.537153905138418E-002  7.723321606595440E-002  7.914087650278362E-002 
 8.109565615240122E-002  8.309871885936511E-002  8.515125721519165E-002  8.725449326840701E-002 
 8.940967925213715E-002  9.161809832966343E-002  9.388106535840753E-002  9.619992767276020E-002 
 9.857606588627654E-002  1.010108947136689E-001  1.035058638130961E-001  1.060624586492801E-001 
 1.086822013779162E-001  1.113666517519511E-001  1.141174080502229E-001  1.169361080290641E-001 
 1.198244298973818E-001  1.227840933158482E-001  1.258168604207486E-001  1.289245368731427E-001 
 1.321089729339089E-001  1.353720645653748E-001  1.387157545601412E-001  1.421420336977762E-001 
 1.456529419301100E-001  1.492505695957859E-001  1.529370586648011E-001  1.567146040138222E-001 
 1.605854547329636E-001  1.645519154648671E-001  1.686163477768495E-001  1.727811715669362E-001 
 1.770488665046402E-001  1.814219735073047E-001  1.859030962529365E-001  1.904949027303831E-001 
 1.952001268278232E-001  2.000215699604715E-001  2.049621027384932E-001  2.100246666761342E-001 
 2.152122759430364E-001  2.205280191588283E-001  2.259750612320515E-001  2.315566452444833E-001 
 2.372760943820218E-001  2.431368139132583E-001  2.491422932169221E-001  2.552961078593823E-001 
 2.616019217234940E-001  2.680634891900748E-001  2.746846573730541E-001  2.814693684101838E-001 
 2.884216618099160E-001  2.955456768566226E-001  3.028456550749840E-001  3.103259427553277E-001 
 3.179909935413835E-001  3.258453710818435E-001  3.338937517475820E-001  3.421409274157315E-001 
 3.505918083229080E-001  3.592514259884880E-001  3.681249362104025E-001  3.772176221347890E-001 
 3.865348974015272E-001  3.960823093673423E-001  4.058655424087198E-001  4.158904213062188E-001 
 4.261629147124769E-001  4.366891387058823E-001  4.474753604319158E-001  4.585280018345768E-001 
 4.698536434798939E-001  4.814590284738395E-001  4.933510664771603E-001  5.055368378191250E-001 
 5.180235977132629E-001  5.308187805767799E-001  5.439300044570378E-001  5.573650755671283E-001 
 5.711319929336364E-001  5.852389531590833E-001  5.996943553021234E-001  6.145068058780822E-001 
 6.296851239832729E-001  6.452383465456580E-001  6.611757337053407E-001  6.775067743278663E-001 
 6.942411916537473E-001  7.113889490876050E-001  7.289602561300750E-001  7.469655744564773E-001 
 7.654156241455466E-001  7.843213900619549E-001  8.036941283964808E-001  8.235453733678787E-001 
 8.438869440900550E-001  8.647309516090939E-001  8.860898061138383E-001  9.079762243248344E-001 
 9.304032370656660E-001  9.533841970211899E-001  9.769327866876064E-001  1.001063026518799E+000 
 1.025789283273806E+000  1.051126278570662E+000  1.077089097651376E+000  1.103693198363359E+000 
 1.130954420362937E+000  1.158888994545886E+000  1.187513552711176E+000  1.216845137463152E+000 
 1.246901212358474E+000  1.277699672303735E+000  1.309258854209649E+000  1.341597547908609E+000 
 1.374735007341963E+000  1.408690962023299E+000  1.443485628785282E+000  1.479139723816266E+000 
 1.515674474994535E+000  1.553111634526907E+000  1.591473491899727E+000  1.630782887149630E+000 
 1.671063224462226E+000  1.712338486106443E+000  1.754633246713284E+000  1.797972687907104E+000 
 1.842382613298410E+000  1.887889463846884E+000  1.934520333603899E+000
    </PP_RAB>
  </PP_MESH>
  <PP_NLCC type="real" size="511" columns="4">
 1.249707517007754E-001  1.249707517006401E-001  1.249707517004889E-001  1.249707517003297E-001 
 1.249707517001626E-001  1.249707516999796E-001  1.249707516997806E-001  1.249707516995737E-001 
 1.249707516993429E-001  1.249707516990963E-001  1.249707516988337E-001  1.249707516985472E-001 
 1.249707516982448E-001  1.249707516979106E-001  1.249707516975604E-001  1.249707516971784E-001 
 1.249707516967726E-001  1.249707516963270E-001  1.249707516958575E-001  1.249707516953402E-001 
 1.249707516947911E-001  1.249707516942023E-001  1.249707516935656E-001  1.249707516928813E-001 
 1.249707516921492E-001  1.249707516913534E-001  1.249707516905019E-001  1.249707516895868E-001 
 1.249707516886000E-001  1.249707516875416E-001  1.249707516863957E-001  1.249707516851702E-001 
 1.249707516838492E-001  1.249707516824248E-001  1.249707516808969E-001  1.249707516792496E-001 
 1.249707516774830E-001  1.249707516755732E-001  1.249707516735201E-001  1.249707516713158E-001 
 1.249707516689444E-001  1.249707516663899E-001  1.249707516636445E-001  1.249707516606842E-001 
 1.249707516575091E-001  1.249707516540872E-001  1.249707516504028E-001  1.249707516464399E-001 
 1.249707516421825E-001  1.249707516375908E-001  1.249707516326570E-001  1.249707516273492E-001 
 1.249707516216356E-001  1.249707516154922E-001  1.249707516088793E-001  1.249707516017651E-001 
 1.249707515941177E-001  1.249707515858814E-001  1.249707515770165E-001  1.249707515674831E-001 
 1.249707515572335E-001  1.249707515461961E-001  1.249707515343232E-001  1.249707515215510E-001 
 1.249707515078079E-001  1.249707514930145E-001  1.249707514771070E-001  1.249707514599898E-001 
 1.249707514415756E-001  1.249707514217608E-001  1.249707514004420E-001  1.249707513775078E-001 
 1.249707513528229E-001  1.249707513262758E-001  1.249707512977075E-001  1.249707512669747E-001 
 1.249707512339023E-001  1.249707511983232E-001  1.249707511600464E-001  1.249707511188651E-001 
 1.249707510745564E-001  1.249707510268815E-001  1.249707509755938E-001  1.249707509204068E-001 
 1.249707508610420E-001  1.249707507971652E-001  1.249707507284342E-001  1.249707506544987E-001 
 1.249707505749451E-001  1.249707504893596E-001  1.249707503972725E-001  1.249707502981986E-001 
 1.249707501916125E-001  1.249707500769334E-001  1.249707499535565E-001  1.249707498208133E-001 
 1.249707496780036E-001  1.249707495243554E-001  1.249707493590491E-001  1.249707491812014E-001 
 1.249707489898574E-001  1.249707487840064E-001  1.249707485625264E-001  1.249707483242475E-001 
 1.249707480678967E-001  1.249707477920971E-001  1.249707474953766E-001  1.249707471761436E-001 
 1.249707468327031E-001  1.249707464632090E-001  1.249707460656877E-001  1.249707456380145E-001 
 1.249707451779135E-001  1.249707446829098E-001  1.249707441503694E-001  1.249707435774434E-001 