<UPF version="2.0.1">
  <PP_INFO>
    Generated using FHI98PP, converted with fhi2upf.x v.5.0.1
    Author: Abinit web site
    Generation date: 10-Jul-2012, PG
    Pseudopotential type: SL
    Element: Ce
    Functional: SLA-PW

    Suggested minimum cutoff for wavefunctions:   0. Ry
    Suggested minimum cutoff for charge density:   0. Ry
    The Pseudo was generated with a Non-Relativistic Calculation
    L component and cutoff radius for Local Potential:  0   0.0000

    Valence configuration: 
    nl pn  l   occ       Rcut    Rcut US       E pseu
    6s  6  0  2.00      0.000      0.000     0.000000
    6p  6  1  0.00      0.000      0.000     0.000000
    5d  5  2  1.00      0.000      0.000     0.000000
    4f  4  3  1.00      0.000      0.000     0.000000

    Generation configuration: not available.
    Comment:
    cerium, fhi98PP : Trouiller-Martins-type, LDA Ceperley/Alder Perdew/Wang (1992),
  </PP_INFO>
  <!--                               -->
  <!-- END OF HUMAN READABLE SECTION -->
  <!--                               -->
  <PP_HEADER generated="Generated using FHI98PP, converted with fhi2upf.x v.5.0.1"
             author="Abinit web site"
             date="10-Jul-2012, PG"
             comment="cerium, fhi98PP : Trouiller-Martins-type, LDA Ceperley/Alder Perdew/Wang (1992),"
             element="Ce"
             pseudo_type="SL"
             relativistic="no"
             is_ultrasoft="F"
             is_paw="F"
             is_coulomb="F"
             has_so="F"
             has_wfc="F"
             has_gipaw="F"
             paw_as_gipaw="F"
             core_correction="F"
             functional="SLA-PW"
             z_valence="4.000000000000000E+000"
             total_psenergy="0.000000000000000E+000"
             wfc_cutoff="0.000000000000000E+000"
             rho_cutoff="0.000000000000000E+000"
             l_max="3"
             l_max_rho="0"
             l_local="0"
             mesh_size="555"
             number_of_wfc="4"
             number_of_proj="3"/>
  <PP_MESH dx="2.439988682353512E-002" mesh="555" xmin="-5.075173815233782E+000" rmax="7.999150763353001E+001"
zmesh="5.800000000000000E+001">
    <PP_R type="real" size="555" columns="4">
 1.077586206896600E-004  1.104202586206900E-004  1.131476390086200E-004  1.159423856921300E-004 
 1.188061626187300E-004  1.217406748354100E-004  1.247476695038500E-004  1.278289369405900E-004 
 1.309863116830200E-004  1.342216735815900E-004  1.375369489190600E-004  1.409341115573600E-004 
 1.444151841128300E-004  1.479822391604100E-004  1.516374004676800E-004  1.553828442592300E-004 
 1.592208005124300E-004  1.631535542850900E-004  1.671834470759300E-004  1.713128782187100E-004 
 1.755443063107100E-004  1.798802506765800E-004  1.843232928682900E-004  1.888760782021400E-004 
 1.935413173337300E-004  1.983217878718800E-004  2.032203360323100E-004  2.082398783323100E-004 
 2.133834033271200E-004  2.186539733893000E-004  2.240547265320100E-004  2.295888782773500E-004 
 2.352597235708100E-004  2.410706387430000E-004  2.470250835199600E-004  2.531266030829000E-004 
 2.593788301790500E-004  2.657854872844700E-004  2.723503888204000E-004  2.790774434242600E-004 
 2.859706562768400E-004  2.930341314868800E-004  3.002720745346000E-004  3.076887947756100E-004 
 3.152887080065600E-004  3.230763390943300E-004  3.310563246699600E-004  3.392334158893000E-004 
 3.476124812617700E-004  3.561985095489400E-004  3.649966127347900E-004  3.740120290693400E-004 
 3.832501261873600E-004  3.927164043041800E-004  4.024164994905000E-004  4.123561870279100E-004 
 4.225413848475000E-004  4.329781570532400E-004  4.436727175324500E-004  4.546314336555000E-004 
 4.658608300667900E-004  4.773675925694400E-004  4.891585721059100E-004  5.012407888369200E-004 
 5.136214363212000E-004  5.263078857983300E-004  5.393076905775501E-004  5.526285905348100E-004 
 5.662785167210200E-004  5.802655960840300E-004  5.945981563073100E-004  6.092847307681000E-004 
 6.243340636180699E-004  6.397551149894401E-004  6.555570663296800E-004  6.717493258680200E-004 
 6.883415342169600E-004  7.053435701121200E-004  7.227655562938900E-004  7.406178655343500E-004 
 7.589111268130400E-004  7.776562316453300E-004  7.968643405669700E-004  8.165468897789700E-004 
 8.367155979565100E-004  8.573824732260400E-004  8.785598203147200E-004  9.002602478764900E-004 
 9.224966759990400E-004  9.452823438962200E-004  9.686308177904500E-004  9.925559989898800E-004 
 1.017072132164900E-003  1.042193813829400E-003  1.067936001031000E-003  1.094314020256500E-003 
 1.121343576556800E-003  1.149040762897700E-003  1.177422069741300E-003  1.206504394863900E-003 
 1.236305053417100E-003  1.266841788236500E-003  1.298132780405900E-003  1.330196660081900E-003 
 1.363052517586000E-003  1.396719914770300E-003  1.431218896665200E-003  1.466570003412800E-003 
 1.502794282497100E-003  1.539913301274800E-003  1.577949159816200E-003  1.616924504063700E-003 
 1.656862539314100E-003  1.697787044035100E-003  1.739722384022800E-003  1.782693526908200E-003 
 1.826726057022800E-003  1.871846190631300E-003  1.918080791539900E-003  1.965457387090900E-003 
 2.014004184552000E-003  2.063750087910500E-003  2.114724715081900E-003  2.166958415544400E-003 
 2.220482288408300E-003  2.275328200932000E-003  2.331528807495000E-003  2.389117569040200E-003 
 2.448128772995500E-003  2.508597553688400E-003  2.570559913264500E-003  2.634052743122200E-003 
 2.699113845877300E-003  2.765781957870500E-003  2.834096772229900E-003  2.904098962503900E-003 
 2.975830206877800E-003  3.049333212987700E-003  3.124651743348500E-003  3.201830641409200E-003 
 3.280915858252000E-003  3.361954479950800E-003  3.444994755605600E-003  3.530086126069000E-003 
 3.617279253382900E-003  3.706626050941500E-003  3.798179714399800E-003  3.891994753345400E-003 
 3.988127023753100E-003  4.086633761239800E-003  4.187573615142400E-003  4.291006683436400E-003 
 4.396994548517300E-003  4.505600313865700E-003  4.616888641618100E-003  4.730925791066100E-003 
 4.847779658105400E-003  4.967519815660700E-003  5.090217555107500E-003  5.215945928718600E-003 
 5.344779793158000E-003  5.476795854049000E-003  5.612072711644000E-003  5.750690907621600E-003 
 5.892732973039800E-003  6.038283477473900E-003  6.187429079367500E-003  6.340258577627900E-003 
 6.496862964495300E-003  6.657335479718400E-003  6.821771666067400E-003  6.990269426219300E-003 
 7.162929081046900E-003  7.339853429348700E-003  7.521147809053600E-003  7.706920159937300E-003 
 7.897281087887700E-003  8.092343930758500E-003  8.292224825848300E-003  8.497042779046700E-003 
 8.706919735689199E-003  8.921980653160700E-003  9.142353575293799E-003  9.368169708603500E-003 
 9.599563500406000E-003  9.836672718866100E-003  1.007963853502200E-002  1.032860560683700E-002 
 1.058372216532600E-002  1.084514010281000E-002  1.111301506334900E-002  1.138750653541400E-002 
 1.166877794683800E-002  1.195699676212500E-002  1.225233458215000E-002  1.255496724632900E-002 
 1.286507493731300E-002  1.318284228826500E-002  1.350845849278500E-002  1.384211741755700E-002 
 1.418401771777000E-002  1.453436295539900E-002  1.489336172039800E-002  1.526122775489200E-002 
 1.563818008043700E-002  1.602444312842400E-002  1.642024687369600E-002  1.682582697147700E-002 
 1.724142489767200E-002  1.766728809264400E-002  1.810367010853300E-002  1.855083076021400E-002 
 1.900903627999100E-002  1.947855947610700E-002  1.995967989516600E-002  2.045268398857700E-002 
 2.095786528309500E-002  2.147552455558700E-002  2.200597001211000E-002  2.254951747140900E-002 
 2.310649055295300E-002  2.367722086961100E-002  2.426204822509100E-002  2.486132081625000E-002 
 2.547539544041200E-002  2.610463770779000E-002  2.674942225917200E-002  2.741013298897400E-002 
 2.808716327380200E-002  2.878091620666400E-002  2.949180483696900E-002  3.022025241644200E-002 
 3.096669265112800E-002  3.173156995961100E-002  3.251533973761400E-002  3.331846862913300E-002 
 3.414143480427200E-002  3.498472824393800E-002  3.584885103156300E-002  3.673431765204300E-002 
 3.764165529804800E-002  3.857140418391000E-002  3.952411786725200E-002  4.050036357857300E-002 
 4.150072255896400E-002  4.252579040617100E-002  4.357617742920300E-002  4.465250901170400E-002 
 4.575542598429300E-002  4.688558500610600E-002  4.804365895575600E-002  4.923033733196300E-002 
 5.044632666406300E-002  5.169235093266500E-002  5.296915200070200E-002  5.427749005512000E-002 
 5.561814405948100E-002  5.699191221775000E-002  5.839961244952900E-002  5.984208287703200E-002 
 6.132018232409500E-002  6.283479082750000E-002  6.438681016093900E-002  6.597716437191400E-002 
 6.760680033190000E-002  6.927668830009800E-002  7.098782250111101E-002  7.274122171688800E-002 
 7.453792989329500E-002  7.637901676166001E-002  7.826557847567300E-002  8.019873826402200E-002 
 8.217964709914299E-002  8.420948438249200E-002  8.628945864673999E-002  8.842080827531400E-002 
 9.060480223971400E-002  9.284274085503499E-002  9.513595655415499E-002  9.748581468104200E-002 
 9.989371430366401E-002  1.023610890469600E-001  1.048894079464200E-001  1.074801763227000E-001 
 1.101349366778700E-001  1.128552696138200E-001  1.156427947732800E-001  1.184991718041800E-001 
 1.214261013477400E-001  1.244253260510300E-001  1.274986316044900E-001  1.306478478051200E-001 
 1.338748496459100E-001  1.371815584321600E-001  1.405699429254300E-001  1.440420205156900E-001 
 1.475998584224300E-001  1.512455749254600E-001  1.549813406261200E-001  1.588093797395900E-001 
 1.627319714191600E-001  1.667514511132100E-001  1.708702119557100E-001  1.750907061910100E-001 
 1.794154466339300E-001  1.838470081657900E-001  1.883880292674800E-001  1.930412135903900E-001 
 1.978093315660700E-001  2.026952220557500E-001  2.077017940405300E-001  2.128320283533300E-001 
 2.180889794536600E-001  2.234757772461700E-001  2.289956289441500E-001  2.346518209790700E-001 
 2.404477209572500E-001  2.463867796648900E-001  2.524725331226200E-001  2.587086046907400E-001 
 2.650987072266100E-001  2.716466452951000E-001  2.783563174338900E-001  2.852317184745100E-001 
 2.922769419208300E-001  2.994961823862700E-001  3.068937380912100E-001  3.144740134220700E-001 
 3.222415215535900E-001  3.302008871359700E-001  3.383568490482200E-001  3.467142632197200E-001 
 3.552781055212400E-001  3.640534747276200E-001  3.730455955533900E-001  3.822598217635600E-001 
 3.917016393611200E-001  4.013766698533400E-001  4.112906735987200E-001  4.214495532366000E-001 
 4.318593572015500E-001  4.425262833244300E-001  4.534566825225400E-001  4.646570625808500E-001 
 4.761340920265900E-001  4.878946040996500E-001  4.999456008209100E-001  5.122942571611900E-001 
 5.249479253130700E-001  5.379141390683000E-001  5.512006183032900E-001  5.648152735753800E-001 
 5.787662108326900E-001  5.930617362402600E-001  6.077103611253900E-001  6.227208070451900E-001 
 6.381020109792100E-001  6.538631306503900E-001  6.700135499774600E-001  6.865628846619000E-001 
 7.035209879130500E-001  7.208979563145000E-001  7.387041358354700E-001  7.569501279906100E-001 
 7.756467961519700E-001  7.948052720169300E-001  8.144369622357500E-001  8.345535552029700E-001 
 8.551670280164800E-001  8.762896536084900E-001  8.979340080526200E-001  9.201129780515200E-001 
 9.428397686093900E-001  9.661279108940400E-001  9.899912702931301E-001  1.014444054669400E+000 
 1.039500822819700E+000  1.065176493143300E+000  1.091486352524000E+000  1.118446065431300E+000 
 1.146071683247500E+000  1.174379653823700E+000  1.203386831273100E+000  1.233110486005600E+000 
 1.263568315009900E+000  1.294778452390700E+000  1.326759480164700E+000  1.359530439324800E+000 
 1.393110841176100E+000  1.427520678953200E+000  1.462780439723300E+000  1.498911116584500E+000 
 1.535934221164100E+000  1.573871796426900E+000  1.612746429798600E+000  1.652581266614600E+000 
 1.693400023900000E+000  1.735227004490300E+000  1.778087111501200E+000  1.822005863155300E+000 
 1.867009407975300E+000  1.913124540352300E+000  1.960378716499000E+000  2.008800070796500E+000 
 2.058417432545200E+000  2.109260343129000E+000  2.161359073604300E+000  2.214744642722300E+000 
 2.269448835397600E+000  2.325504221631900E+000  2.382944175906200E+000  2.441802897051100E+000 
 2.502115428608200E+000  2.563917679694900E+000  2.627246446383300E+000  2.692139433609000E+000 
 2.758635277619100E+000  2.826773568976300E+000  2.896594876130000E+000  2.968140769570500E+000 
 3.041453846578900E+000  3.116577756589300E+000  3.193557227177100E+000  3.272438090688400E+000 
 3.353267311528400E+000  3.436093014123100E+000  3.520964511572000E+000  3.607932335007800E+000 
 3.697048263682500E+000  3.788365355795500E+000  3.881937980083600E+000  3.977821848191700E+000 
 4.076074047842000E+000  4.176753076823700E+000  4.279918877821200E+000  4.385632874103400E+000 
 4.493958006093800E+000  4.604958768844300E+000  4.718701250434700E+000  4.835253171320500E+000 
 4.954683924652100E+000  5.077064617591000E+000  5.202468113645500E+000  5.330969076052600E+000 
 5.462644012231000E+000  5.597571319333200E+000  5.735831330920700E+000  5.877506364794400E+000 
 6.022680772004800E+000  6.171440987073400E+000  6.323875579454100E+000  6.480075306266600E+000 
 6.640133166331400E+000  6.804144455539800E+000  6.972206823591600E+000  7.144420332134300E+000 
 7.320887514338000E+000  7.501713435942200E+000  7.687005757809900E+000  7.876874800027800E+000 
 8.071433607588499E+000  8.270798017696000E+000  8.475086728733100E+000  8.684421370932800E+000 
 8.898926578794800E+000  9.118730065291000E+000  9.343962697903700E+000  9.574758576541999E+000 
 9.811255113382501E+000  1.005359311468300E+001  1.030191686461600E+001  1.055637421117200E+001 
 1.081711665418800E+001  1.108429943554600E+001  1.135808163160400E+001  1.163862624790500E+001 
 1.192610031622800E+001  1.222067499403900E+001  1.252252566639200E+001  1.283183205035100E+001 
 1.314877830199500E+001  1.347355312605400E+001  1.380634988826800E+001  1.414736673050800E+001 
 1.449680668875200E+001  1.485487781396400E+001  1.522179329596900E+001  1.559777159037900E+001 
 1.598303654866200E+001  1.637781755141400E+001  1.678234964493300E+001  1.719687368116300E+001 
 1.762163646108800E+001  1.805689088167700E+001  1.850289608645400E+001  1.895991761979000E+001 
 1.942822758499900E+001  1.990810480634800E+001  2.039983499506500E+001  2.090371091944300E+001 
 2.142003257915300E+001  2.194910738385800E+001  2.249125033624000E+001  2.304678421954500E+001 
 2.361603978976700E+001  2.419935597257500E+001  2.479708006509700E+001  2.540956794270500E+001 
 2.603718427089000E+001  2.668030272238100E+001  2.733930619962400E+001  2.801458706275400E+001 
 2.870654736320500E+001  2.941559908307600E+001  3.014216438042800E+001  3.088667584062400E+001 
 3.164957673388800E+001  3.243132127921500E+001  3.323237491481100E+001  3.405321457520700E+001 
 3.489432897521500E+001  3.575621890090200E+001  3.663939750775500E+001  3.754439062619600E+001 
 3.847173707466300E+001  3.942198898040800E+001  4.039571210822400E+001  4.139348619729700E+001 
 4.241590530637000E+001  4.346357816743700E+001  4.453712854817300E+001  4.563719562331300E+001 
 4.676443435520900E+001  4.791951588378200E+001  4.910312792611200E+001  5.031597518588700E+001 
 5.155877977297800E+001  5.283228163337100E+001  5.413723898971500E+001  5.547442879276100E+001 
 5.684464718394200E+001  5.824870996938500E+001  5.968745310562900E+001  6.116173319733800E+001 
 6.267242800731300E+001  6.422043697909299E+001  6.580668177247701E+001  6.743210681225700E+001 
 6.909767985052000E+001  7.080439254282700E+001  7.255326103863500E+001  7.434532658629000E+001 
 7.618165615297100E+001  7.806334305994901E+001  7.999150763353001E+001
    </PP_R>
    <PP_RAB type="real" size="555" columns="4">
 2.629298149087954E-006  2.694241813370314E-006  2.760789586160536E-006  2.828981088938630E-006 
 2.898856921835521E-006  2.970458687804794E-006  3.043829017393704E-006  3.119011594123204E-006 
 3.196051180497984E-006  3.274993644656269E-006  3.355885987679395E-006  3.438776371575057E-006 
 3.523714147953039E-006  3.610749887407311E-006  3.699935409626464E-006  3.791323814244196E-006 
 3.884969512455955E-006  3.980928259413690E-006  4.079257187421166E-006  4.180014839950579E-006 
 4.283261206497306E-006  4.389057758297679E-006  4.497467484927594E-006  4.608554931805385E-006 
 4.722386238620908E-006  4.839029178715012E-006  4.958553199429140E-006  5.081029463455087E-006 
 5.206530891202476E-006  5.335132204215181E-006  5.466909969659155E-006  5.601942645909721E-006 
 5.740310629263921E-006  5.882096301806521E-006  6.027384080461335E-006  6.176260467248655E-006 
 6.328814100789756E-006  6.485135809079201E-006  6.645318663563545E-006  6.809458034553470E-006 
 6.977651648006959E-006  7.149999643712781E-006  7.326604634912342E-006  7.507571769394808E-006 
 7.693008792098676E-006  7.883026109263706E-006  8.077736854162523E-006  8.277256954460139E-006 
 8.481705201235410E-006  8.691203319706031E-006  8.905876041702554E-006  9.125851179932623E-006 
 9.351259704077138E-006  9.582235818767653E-006  9.818917043491379E-006  1.006144429446549E-005 
 1.030996196853880E-005  1.056461802916187E-005  1.082556409448205E-005  1.109295552761572E-005 
 1.136695152914780E-005  1.164771523191776E-005  1.193541379814625E-005  1.223021851896031E-005 
 1.253230491637883E-005  1.284185284781330E-005  1.315904661315432E-005  1.348407506449910E-005 
 1.381713171859223E-005  1.415841487204147E-005  1.450812771938101E-005  1.486647847404971E-005 
 1.523368049235868E-005  1.560995240052003E-005  1.599551822481290E-005  1.639060752496570E-005 
 1.679545553083235E-005  1.721030328244394E-005  1.763539777352032E-005  1.807099209852629E-005 
 1.851734560335969E-005  1.897472403976286E-005  1.944339972354501E-005  1.992365169671647E-005 
 2.041576589362536E-005  2.092003531119801E-005  2.143676018338452E-005  2.196624815991403E-005 
 2.250881448946392E-005  2.306478220735377E-005  2.363448232787525E-005  2.421825404137391E-005 
 2.481644491619512E-005  2.542941110562579E-005  2.605751755993509E-005  2.670113824366632E-005 
 2.736065635828401E-005  2.803646457033233E-005  2.872896524522020E-005  2.943857068677689E-005 
 3.016570338274178E-005  3.091079625629545E-005  3.167429292382493E-005  3.245664795904278E-005 
 3.325832716363301E-005  3.407980784457294E-005  3.492157909833568E-005  3.578414210206383E-005 
 3.666801041198490E-005  3.757371026916146E-005  3.850178091280761E-005  3.945277490135493E-005 
 4.042725844141905E-005  4.142581172492068E-005  4.244902927452703E-005  4.349752029760874E-005 
 4.457190904895888E-005  4.567283520246907E-005  4.680095423197022E-005  4.795693780149902E-005 
 4.914147416519494E-005  5.035526857707686E-005  5.159904371093092E-005  5.287354009059035E-005 
 5.417951653082680E-005  5.551775058913858E-005  5.688903902868980E-005  5.829419829270023E-005 
 5.973406499053010E-005  6.120949639579402E-005  6.272137095677006E-005  6.427058881940391E-005 
 6.585807236324274E-005  6.748476675061559E-005  6.915164048935575E-005  7.085968600944092E-005 
 7.260992025387543E-005  7.440338528414660E-005  7.624114890066510E-005  7.812430527851135E-005 
 8.005397561889040E-005  8.203130881667639E-005  8.405748214444867E-005  8.613370195341514E-005 
 8.826120439166437E-005  9.044125614013952E-005  9.267515516680206E-005  9.496423149942025E-005 
 9.730984801745761E-005  9.971340126348876E-005  1.021763222746964E-004  1.047000774348810E-004 
 1.072861693475230E-004  1.099361377304074E-004  1.126515603323464E-004  1.154340538725562E-004 
 1.182852750032075E-004  1.212069212957891E-004  1.242007322517946E-004  1.272684903384126E-004 
 1.304120220497726E-004  1.336331989944020E-004  1.369339390095635E-004  1.403162073030995E-004 
 1.437820176234848E-004  1.473334334587853E-004  1.509725692652171E-004  1.547015917260685E-004 
 1.585227210417022E-004  1.624382322514338E-004  1.664504565880432E-004  1.705617828657687E-004 
 1.747746589025528E-004  1.790915929774444E-004  1.835151553239870E-004  1.880479796604913E-004 
 1.926927647581042E-004  1.974522760476287E-004  2.023293472660068E-004  2.073268821434758E-004 
 2.124478561324208E-004  2.176953181788910E-004  2.230723925379104E-004  2.285822806335954E-004 
 2.342282629652450E-004  2.400137010604884E-004  2.459420394766802E-004  2.520168078517531E-004 
 2.582416230056945E-004  2.646201910939460E-004  2.711563098139566E-004  2.778538706663682E-004 
 2.847168612718097E-004  2.917493677452259E-004  2.989555771285455E-004  3.063397798836180E-004 
 3.139063724467354E-004  3.216598598461788E-004  3.296048583843758E-004  3.377460983864751E-004 
 3.460884270166049E-004  3.546368111639170E-004  3.633963403996815E-004  3.723722300075578E-004 
 3.815698240887241E-004  3.909945987437207E-004  4.006521653326888E-004  4.105482738164235E-004 
 4.206888161796775E-004  4.310798299393033E-004  4.417275017388210E-004  4.526381710317756E-004 
 4.638183338562535E-004  4.752746467025084E-004  4.870139304760398E-004  4.990431745588077E-004 
 5.113695409704139E-004  5.240003686323722E-004  5.369431777375918E-004  5.502056742277074E-004 
 5.637957543811366E-004  5.777215095143523E-004  5.919912307993715E-004  6.066134142000978E-004 
 6.215967655308555E-004  6.369502056394633E-004  6.526828757187480E-004  6.688041427490121E-004 
 6.853236050749210E-004  7.022510981202493E-004  7.195967002438293E-004  7.373707387398485E-004 
 7.555837959867199E-004  7.742467157475953E-004  7.933706096265758E-004  8.129668636843505E-004 
 8.330471452173398E-004  8.536234097042198E-004  8.747079079239076E-004  8.963131932496376E-004 
 9.184521291228923E-004  9.411378967122331E-004  9.643840027610110E-004  9.882042876292051E-004 
 1.012612933533652E-003  1.037624472991948E-003  1.063253797474839E-003  1.089516166272460E-003 
 1.116427215579387E-003  1.144002967804222E-003  1.172259841108966E-003  1.201214659184353E-003 
 1.230884661266219E-003  1.261287512399486E-003  1.292441313955758E-003  1.324364614410481E-003 
 1.357076420386409E-003  1.390596207969948E-003  1.424943934306820E-003  1.460140049484190E-003 
 1.496205508706457E-003  1.533161784771503E-003  1.571030880855353E-003  1.609835343612475E-003 
 1.649598276599697E-003  1.690343354031711E-003  1.732094834876308E-003  1.774877577297742E-003 
 1.818717053456993E-003  1.863639364677396E-003  1.909671256984928E-003  1.956840137032452E-003 
 2.005174088417145E-003  2.054701888401053E-003  2.105453025044570E-003  2.157457714763159E-003 
 2.210746920317803E-003  2.265352369249654E-003  2.321306572770136E-003  2.378642845117543E-003 
 2.437395323391953E-003  2.497598987879624E-003  2.559289682880253E-003  2.622504138047479E-003 
 2.687279990257235E-003  2.753655806016750E-003  2.821671104425331E-003  2.891366380704636E-003 
 2.962783130307962E-003  3.035963873626588E-003  3.110952181305154E-003  3.187792700183370E-003 
 3.266531179877985E-003  3.347214500020874E-003  3.429890698171284E-003  3.514608998416160E-003 
 3.601419840677099E-003  3.690374910741726E-003  3.781527171037074E-003  3.874930892161807E-003 
 3.970641685198255E-003  4.068716534822573E-003  4.169213833232782E-003  4.272193414913484E-003 
 4.377716592261897E-003  4.485846192090813E-003  4.596646593035334E-003  4.710183763883386E-003 
 4.826525302851241E-003  4.945740477831619E-003  5.067900267634133E-003  5.193077404244671E-003 
 5.321346416129580E-003  5.452783672608093E-003  5.587467429321503E-003  5.725477874825732E-003 
 5.866897178333854E-003  6.011809538638601E-003  6.160301234243151E-003  6.312460674728743E-003 
 6.468378453394756E-003  6.628147401193430E-003  6.791862642002932E-003  6.959621649260476E-003 
 7.131524303997199E-003  7.307672954305821E-003  7.488172476277154E-003  7.673130336441372E-003 
 7.862656655751348E-003  8.056864275148562E-003  8.255868822744525E-003  8.459788782666533E-003 
 8.668745565598225E-003  8.882863581068632E-003  9.102270311520973E-003  9.327096388215571E-003 
 9.557475669004499E-003  9.793545318028916E-003  1.003544588738429E-002  1.028332140080248E-002 
 1.053731943940245E-002  1.079759122955573E-002  1.106429173292567E-002  1.133757973872902E-002 
 1.161761795827545E-002  1.190457312184494E-002  1.219861607795447E-002  1.249992189508003E-002 
 1.280866996588848E-002  1.312504411404585E-002  1.344923270366286E-002  1.378142875144330E-002 
 1.412183004160390E-002  1.447063924363158E-002  1.482806403294917E-002  1.519431721456309E-002 
 1.556961684976289E-002  1.595418638595188E-002  1.634825478968501E-002  1.675205668299016E-002 
 1.716583248306004E-002  1.758982854539157E-002  1.802429731046278E-002  1.846949745403131E-002 
 1.892569404114568E-002  1.939315868396214E-002  1.987216970345605E-002  2.036301229513134E-002 
 2.086597869882100E-002  2.138136837268195E-002  2.190948817148720E-002  2.245065252932294E-002 
 2.300518364679716E-002  2.357341168287300E-002  2.415567495144014E-002  2.475232012274144E-002 
 2.536370242977232E-002  2.599018587978656E-002  2.663214347101876E-002  2.728995741475188E-002 
 2.796401936289739E-002  2.865473064116063E-002  2.936250248799619E-002  3.008775629945103E-002 
 3.083092388004653E-002  3.159244769988503E-002  3.237278115807097E-002  3.317238885267610E-002 
 3.399174685733665E-002  3.483134300471410E-002  3.569167717692946E-002  3.657326160320046E-002 
 3.747662116479861E-002  3.840229370757027E-002  3.935083036214617E-002  4.032279587209056E-002 
 4.131876893013167E-002  4.233934252270519E-002  4.338512428301575E-002  4.445673685280674E-002 
 4.555481825307263E-002  4.668002226392377E-002  4.783301881384264E-002  4.901449437854394E-002 
 5.022515238969462E-002  5.146571365371845E-002  5.273691678096563E-002  5.403951862545484E-002 
 5.537429473550503E-002  5.674203981547150E-002  5.814356819891345E-002  5.957971433342702E-002 
 6.105133327746115E-002  6.255930120941633E-002  6.410451594928736E-002  6.568789749323554E-002 
 6.731038856131744E-002  6.897295515878217E-002  7.067658715120373E-002  7.242229885384065E-002 
 7.421112963553071E-002  7.604414453752591E-002  7.792243490760388E-002  7.984711904982232E-002 
 8.181934289035285E-002  8.384028065974330E-002  8.591113559204042E-002  8.803314064116312E-002 
 9.020755921500002E-002  9.243568592761156E-002  9.471884737002237E-002  9.705840290006279E-002 
 9.945574545169347E-002  1.019123023643504E-001  1.044295362327487E-001  1.070089457776980E-001 
 1.096520667384083E-001  1.123604727868465E-001  1.151357764646803E-001  1.179796301433595E-001 
 1.208937270079000E-001  1.238798020649950E-001  1.269396331760005E-001  1.300750421154490E-001 
 1.332878956556982E-001  1.365801066783963E-001  1.399536353133519E-001  1.434104901055907E-001 
 1.469527292111983E-001  1.505824616227169E-001  1.543018484247976E-001  1.581131040808897E-001 
 1.620184977516881E-001  1.660203546461551E-001  1.701210574059143E-001  1.743230475238401E-001 
 1.786288267976786E-001  1.830409588195825E-001  1.875620705024244E-001  1.921948536438342E-001 
 1.969420665288372E-001  2.018065355721010E-001  2.067911570007321E-001  2.118988985786500E-001 
 2.171328013735417E-001  2.224959815674674E-001  2.279916323121842E-001  2.336230256302970E-001 
 2.393935143633633E-001  2.453065341681372E-001  2.513656055620982E-001  2.575743360194817E-001 
 2.639364221191641E-001  2.704556517454966E-001  2.771359063436107E-001  2.839811632303072E-001 
 2.909954979620896E-001  2.981830867617573E-001  3.055482090047785E-001  3.130952497671750E-001 
 3.208287024364323E-001  3.287531713866054E-001  3.368733747198660E-001  3.451941470754413E-001 
 3.537204425082158E-001  3.624573374381644E-001  3.714100336728893E-001  3.805838615045991E-001 
 3.899842828837782E-001  3.996168946710087E-001  4.094874319693600E-001  4.196017715390070E-001 
 4.299659352960271E-001  4.405860938978421E-001  4.514685704171085E-001  4.626198441064254E-001 
 4.740465542558587E-001  4.857555041459668E-001  4.977536650983772E-001  5.100481806263045E-001 
 5.226463706877683E-001  5.355557360437543E-001  5.487839627240523E-001  5.623389266033332E-001 
 5.762286980904170E-001  5.904615469332687E-001  6.050459471425057E-001  6.199905820369281E-001 
 6.353043494132448E-001  6.509963668437524E-001  6.670759771047977E-001  6.835527537392688E-001 
 7.004365067566526E-001  7.177372884735379E-001  7.354653994988348E-001  7.536313948664422E-001 
 7.722460903196575E-001  7.913205687505522E-001  8.108661867986759E-001  8.308945816126074E-001 
 8.514176777784482E-001  8.724476944195562E-001  8.939971524717367E-001  9.160788821377752E-001 
 9.387060305265773E-001  9.618920694806040E-001  9.856508035967728E-001  1.009996378445610E+000 
 1.034943288993211E+000  1.060506388231335E+000  1.086700896020656E+000  1.113542408152369E+000 
 1.141046905633737E+000  1.169230764202874E+000  1.198110764078700E+000  1.227704099951444E+000 
 1.258028391220235E+000  1.289101692483386E+000  1.320942504287719E+000  1.353569784143626E+000 
 1.387002957811969E+000  1.421261930869916E+000  1.456367100562407E+000  1.492339367946298E+000 
 1.529200150334590E+000  1.566971394047839E+000  1.605675587480831E+000  1.645335774491603E+000 
 1.685975568121551E+000  1.727619164654133E+000  1.770291358021094E+000  1.814017554564233E+000 
 1.858823788161960E+000  1.904736735729551E+000  1.951783733102078E+000
    </PP_RAB>
  </PP_MESH>
  <PP_LOCAL type="real" size="555" columns="4">
 3.013446417039200E+000  3.013446380291600E+000  3.013446344432600E+000  3.013446309441200E+000 
 3.013446275296400E+000  3.013446241977800E+000  3.013446209466200E+000  3.013446177741800E+000 
 3.013446146786000E+000  3.013446116580400E+000  3.013446087107400E+000  3.013446058349200E+000 
 3.013446030289000E+000  3.013446002910000E+000  3.013445976196400E+000  3.013445950132000E+000 
 3.013445924701800E+000  3.013445899890600E+000  3.013445875683800E+000  3.013445852067200E+000 
 3.013445829026800E+000  3.013445806549000E+000  3.013445784621000E+000  3.013445763229400E+000 
 3.013445742362200E+000  3.013445722006800E+000  3.013445702151400E+000  3.013445682784600E+000 