<UPF version="2.0.1">
  <PP_INFO>
    Generated using FHI98PP, converted with fhi2upf.x v.5.0.1
    Author: Abinit web site
    Generation date: 10-Jul-2012, PG
    Pseudopotential type: SL
    Element: Cf
    Functional: SLA-PW

    Suggested minimum cutoff for wavefunctions:   0. Ry
    Suggested minimum cutoff for charge density:   0. Ry
    The Pseudo was generated with a Non-Relativistic Calculation
    L component and cutoff radius for Local Potential:  0   0.0000

    Valence configuration: 
    nl pn  l   occ       Rcut    Rcut US       E pseu
    7s  7  0  2.00      0.000      0.000     0.000000
    7p  7  1  0.00      0.000      0.000     0.000000
    6d  6  2  0.00      0.000      0.000     0.000000
    5f  5  3 10.00      0.000      0.000     0.000000

    Generation configuration: not available.
    Comment:
    californium, fhi98PP : Trouiller-Martins-type, LDA Ceperley/Alder Perdew/Wang (1
  </PP_INFO>
  <!--                               -->
  <!-- END OF HUMAN READABLE SECTION -->
  <!--                               -->
  <PP_HEADER generated="Generated using FHI98PP, converted with fhi2upf.x v.5.0.1"
             author="Abinit web site"
             date="10-Jul-2012, PG"
             comment="californium, fhi98PP : Trouiller-Martins-type, LDA Ceperley/Alder Perdew/Wang (1"
             element="Cf"
             pseudo_type="SL"
             relativistic="no"
             is_ultrasoft="F"
             is_paw="F"
             is_coulomb="F"
             has_so="F"
             has_wfc="F"
             has_gipaw="F"
             paw_as_gipaw="F"
             core_correction="T"
             functional="SLA-PW"
             z_valence="1.200000000000000E+001"
             total_psenergy="0.000000000000000E+000"
             wfc_cutoff="0.000000000000000E+000"
             rho_cutoff="0.000000000000000E+000"
             l_max="3"
             l_max_rho="0"
             l_local="0"
             mesh_size="575"
             number_of_wfc="4"
             number_of_proj="3"/>
  <PP_MESH dx="2.439988682353512E-002" mesh="575" xmin="-5.075173815233821E+000" rmax="7.712239789106900E+001"
zmesh="9.800000000000000E+001">
    <PP_R type="real" size="575" columns="4">
 6.377551020408200E-005  6.535076530612200E-005  6.696492920918399E-005  6.861896296065100E-005 
 7.031385134577901E-005  7.205060347401900E-005  7.383025337982800E-005  7.565386063830899E-005 
 7.752251099607600E-005  7.943731701767900E-005  8.139941874801499E-005  8.340998439109099E-005 
 8.547021100555100E-005  8.758132521738800E-005  8.974458395025799E-005  9.196127517382900E-005 
 9.423271867062300E-005  9.656026682178701E-005  9.894530541228500E-005  1.013892544559700E-004 
 1.038935690410300E-004  1.064597401963400E-004  1.090892957791900E-004  1.117838013849400E-004 
 1.145448612791500E-004  1.173741193527400E-004  1.202732601007600E-004  1.232440096252400E-004 
 1.262881366629900E-004  1.294074536385600E-004  1.326038177434400E-004  1.358791320417000E-004 
 1.392353466031300E-004  1.426744596642300E-004  1.461985188179300E-004  1.498096222327400E-004 
 1.535099199018800E-004  1.573016149234600E-004  1.611869648120700E-004  1.651682828429300E-004 
 1.692479394291500E-004  1.734283635330500E-004  1.777120441123200E-004  1.821015316018900E-004 
 1.865994394324600E-004  1.912084455864400E-004  1.959312941924200E-004  2.007707971589800E-004 
 2.057298358488000E-004  2.108113627942700E-004  2.160184034552900E-004  2.213540580206300E-004 
 2.268215032537400E-004  2.324239943841100E-004  2.381648670454000E-004  2.440475392614200E-004 
 2.500755134811700E-004  2.562523786641600E-004  2.625818124171600E-004  2.690675831838700E-004 
 2.757135524885100E-004  2.825236772349800E-004  2.895020120626800E-004  2.966527117606300E-004 
 3.039800337411200E-004  3.114883405745200E-004  3.191821025867100E-004  3.270659005206000E-004 
 3.351444282634600E-004  3.434224956415700E-004  3.519050312839200E-004  3.605970855566300E-004 
 3.695038335698800E-004  3.786305782590500E-004  3.879827535420500E-004  3.975659275545400E-004 
 4.073858059651400E-004  4.174482353724800E-004  4.277592067861800E-004  4.383248591938000E-004 
 4.491514832158800E-004  4.602455248513200E-004  4.716135893151400E-004  4.832624449712300E-004 
 4.951990273620200E-004  5.074304433378600E-004  5.199639752883000E-004  5.328070854779200E-004 
 5.459674204892300E-004  5.594528157753100E-004  5.732713003249600E-004  5.874311014429900E-004 
 6.019406496486299E-004  6.168085836949500E-004  6.320437557122200E-004  6.476552364783100E-004 
 6.636523208193200E-004  6.800445331435600E-004  6.968416331122100E-004  7.140536214500800E-004 
 7.316907458999000E-004  7.497635073236200E-004  7.682826659545200E-004  7.872592478035900E-004 
 8.067045512243400E-004  8.266301536395800E-004  8.470479184344800E-004  8.679700020198100E-004 
 8.894088610697000E-004  9.113772599381200E-004  9.338882782585900E-004  9.569553187315800E-004 
 9.805921151042501E-004  1.004812740347300E-003  1.029631615033900E-003  1.055063515925200E-003 
 1.081123584768600E-003  1.107827337312400E-003  1.135190672544000E-003  1.163229882155800E-003 
 1.191961660245100E-003  1.221403113253100E-003  1.251571770150500E-003  1.282485592873200E-003 
 1.314162987017200E-003  1.346622812796500E-003  1.379884396272600E-003  1.413967540860500E-003 
 1.448892539119800E-003  1.484680184836000E-003  1.521351785401500E-003  1.558929174500900E-003 
 1.597434725111100E-003  1.636891362821300E-003  1.677322579483000E-003  1.718752447196200E-003 
 1.761205632642000E-003  1.804707411768200E-003  1.849283684838900E-003  1.894960991854400E-003 
 1.941766528353200E-003  1.989728161603500E-003  2.038874447195100E-003  2.089234646040900E-003 
 2.140838741798100E-003  2.193717458720500E-003  2.247902279950900E-003  2.303425466265700E-003 
 2.360320075282400E-003  2.418619981141900E-003  2.478359894676100E-003  2.539575384074600E-003 
 2.602302896061300E-003  2.666579777594000E-003  2.732444298100500E-003  2.799935672263600E-003 
 2.869094083368500E-003  2.939960707227700E-003  3.012577736696300E-003  3.086988406792700E-003 
 3.163237020440400E-003  3.241368974845300E-003  3.321430788524000E-003  3.403470129000500E-003 
 3.487535841186800E-003  3.573677976464200E-003  3.661947822482800E-003  3.752397933698200E-003 
 3.845082162660500E-003  3.940055692078200E-003  4.037375067672500E-003  4.137098231844100E-003 
 4.239284558170600E-003  4.343994886757400E-003  4.451291560460300E-003  4.561238462003700E-003 
 4.673901052015200E-003  4.789346408000000E-003  4.907643264277600E-003  5.028862052905200E-003 
 5.153074945612000E-003  5.280355896768600E-003  5.410780687418800E-003  5.544426970398000E-003 
 5.681374316566800E-003  5.821704262186000E-003  5.965500357462000E-003  6.112848216291400E-003 
 6.263835567233700E-003  6.418552305744400E-003  6.577090547696300E-003  6.739544684224400E-003 
 6.906011437924700E-003  7.076589920441500E-003  7.251381691476400E-003  7.430490819255900E-003 
 7.614023942491500E-003  7.802090333871000E-003  7.994801965117600E-003  8.192273573655999E-003 
 8.394622730925300E-003  8.601969912379199E-003  8.814438569215001E-003  9.032155201874600E-003 
 9.255249435360900E-003  9.483854096414300E-003  9.718105292595701E-003  9.958142493322801E-003 
 1.020410861290800E-002  1.045615009564700E-002  1.071441700300900E-002  1.097906310298400E-002 
 1.125024596162700E-002  1.152812703687900E-002  1.181287177469000E-002  1.210464970752500E-002 
 1.240363455530100E-002  1.271000432881700E-002  1.302394143573900E-002  1.334563278920200E-002 
 1.367526991909500E-002  1.401304908609600E-002  1.435917139852300E-002  1.471384293206700E-002 
 1.507727485248900E-002  1.544968354134500E-002  1.583129072481600E-002  1.622232360571900E-002 
 1.662301499878000E-002  1.703360346925000E-002  1.745433347494100E-002  1.788545551177200E-002 
 1.832722626291300E-002  1.877990875160700E-002  1.924377249777100E-002  1.971909367846600E-002 
 2.020615529232400E-002  2.070524732804500E-002  2.121666693704700E-002  2.174071861039300E-002 
 2.227771436006900E-002  2.282797390476300E-002  2.339182486021100E-002  2.396960293425800E-002 
 2.456165212673400E-002  2.516832493426400E-002  2.578998256014100E-002  2.642699512937600E-002 
 2.707974190907200E-002  2.774861153422600E-002  2.843400223912100E-002  2.913632209442700E-002 
 2.985598925016000E-002  3.059343218463900E-002  3.134908995959900E-002  3.212341248160100E-002 
 3.291686076989700E-002  3.372990723091300E-002  3.456303593951700E-002  3.541674292722300E-002 
 3.629153647752500E-002  3.718793742852000E-002  3.810647948300500E-002  3.904770952623500E-002 
 4.001218795153300E-002  4.100048899393600E-002  4.201320107208600E-002  4.305092713856700E-002 
 4.411428503888900E-002  4.520390787935000E-002  4.632044440397000E-002  4.746455938074800E-002 
 4.863693399745200E-002  4.983826626718900E-002  5.106927144398900E-002  5.233068244865500E-002 
 5.362325030513700E-002  5.494774458767400E-002  5.630495387898900E-002  5.769568623980100E-002 
 5.912076968992400E-002  6.058105270126500E-002  6.207740470298600E-002  6.361071659915001E-002 
 6.518190129914900E-002  6.679189426123799E-002  6.844165404949000E-002  7.013216290451300E-002 
 7.186442732825400E-002  7.363947868326200E-002  7.545837380673900E-002  7.732219563976500E-002 
 7.923205387206700E-002  8.118908560270700E-002  8.319445601709401E-002  8.524935908071600E-002 
 8.735501825001001E-002  8.951268720078499E-002  9.172365057464500E-002  9.398922474383800E-002 
 9.631075859501100E-002  9.868963433230800E-002  1.011272683003200E-001  1.036251118273300E-001 
 1.061846520894700E-001  1.088074129960800E-001  1.114949560970800E-001  1.142488815126800E-001 
 1.170708288860400E-001  1.199624783595300E-001  1.229255515750100E-001  1.259618126989100E-001 
 1.290730694725700E-001  1.322611742885500E-001  1.355280252934700E-001  1.388755675182200E-001 
 1.423057940359200E-001  1.458207471486100E-001  1.494225196031800E-001  1.531132558373800E-001 
 1.568951532565600E-001  1.607704635420000E-001  1.647414939914900E-001  1.688106088930800E-001 
 1.729802309327400E-001  1.772528426367700E-001  1.816309878499000E-001  1.861172732498000E-001 
 1.907143698990700E-001  1.954250148355700E-001  2.002520127020100E-001  2.051982374157500E-001 
 2.102666338799200E-001  2.154602197367500E-001  2.207820871642500E-001  2.262354047172100E-001 
 2.318234192137200E-001  2.375494576683000E-001  2.434169292727100E-001  2.494293274257500E-001 
 2.555902318131600E-001  2.619033105389500E-001  2.683723223092600E-001  2.750011186703000E-001 
 2.817936463014500E-001  2.887539493651000E-001  2.958861719144200E-001  3.031945603607000E-001 
 3.106834660016100E-001  3.183573476118500E-001  3.262207740978600E-001  3.342784272180800E-001 
 3.425351043703700E-001  3.509957214483200E-001  3.596653157680900E-001  3.685490490675600E-001 
 3.776522105795300E-001  3.869802201808500E-001  3.965386316193100E-001  4.063331358203100E-001 
 4.163695642750700E-001  4.266538925126600E-001  4.371922436577300E-001  4.479908920760700E-001 
 4.590562671103500E-001  4.703949569079800E-001  4.820137123436100E-001  4.939194510384900E-001 
 5.061192614791400E-001  5.186204072376800E-001  5.314303312964500E-001  5.445566604794700E-001 
 5.580072099933100E-001  5.717899880801500E-001  5.859132007857299E-001  6.003852568451400E-001 
 6.152147726892100E-001  6.304105775746300E-001  6.459817188407300E-001  6.619374672960900E-001 
 6.782873227383101E-001  6.950410196099400E-001  7.122085327943100E-001  7.298000835543300E-001 
 7.478261456181200E-001  7.662974514148900E-001  7.852249984648300E-001  8.046200559269200E-001 
 8.244941713083100E-001  8.448591773396300E-001  8.657271990199100E-001  8.871106608357100E-001 
 9.090222941583500E-001  9.314751448240600E-001  9.544825809012100E-001  9.780583006494700E-001 
 1.002216340675500E+000  1.026971084290200E+000  1.052337270072200E+000  1.078330000643000E+000 
 1.104964751658800E+000  1.132257381024800E+000  1.160224138336100E+000  1.188881674553000E+000 
 1.218247051914500E+000  1.248337754096800E+000  1.279171696623000E+000  1.310767237529500E+000 
 1.343143188296500E+000  1.376318825047400E+000  1.410313900026100E+000  1.445148653356800E+000 
 1.480843825094700E+000  1.517420667574500E+000  1.554900958063600E+000  1.593307011727800E+000 
 1.632661694917500E+000  1.672988438781900E+000  1.714311253219800E+000  1.756654741174400E+000 
 1.800044113281400E+000  1.844505202879400E+000  1.890064481390500E+000  1.936749074080900E+000 
 1.984586776210700E+000  2.033606069583100E+000  2.083836139501800E+000  2.135306892147500E+000 
 2.188048972383500E+000  2.242093782001400E+000  2.297473498416800E+000  2.354221093827700E+000 
 2.412370354845300E+000  2.471955902609900E+000  2.533013213404400E+000  2.595578639775500E+000 
 2.659689432178000E+000  2.725383761152700E+000  2.792700740053200E+000  2.861680448332500E+000 
 2.932363955406300E+000  3.004793345104900E+000  3.079011740729000E+000  3.155063330725000E+000 
 3.232993394993900E+000  3.312848331850200E+000  3.394675685646900E+000  3.478524175082400E+000 
 3.564443722207000E+000  3.652485482145500E+000  3.742701873554500E+000  3.835146609831300E+000 
 3.929874731094100E+000  4.026942636952100E+000  4.126408120084800E+000  4.228330400650900E+000 
 4.332770161547000E+000  4.439789584537200E+000  4.549452387275300E+000  4.661823861241000E+000 
 4.776970910613600E+000  4.894962092105800E+000  5.015867655780800E+000  5.139759586878600E+000 
 5.266711648674500E+000  5.396799426396700E+000  5.530100372228700E+000  5.666693851422800E+000 
 5.806661189552900E+000  5.950085720934900E+000  6.097052838242000E+000  6.247650043346600E+000 
 6.401966999417200E+000  6.560095584302800E+000  6.722129945235100E+000  6.888166554882400E+000 
 7.058304268788000E+000  7.232644384227100E+000  7.411290700517500E+000  7.594349580820300E+000 
 7.781930015466500E+000  7.974143686848500E+000  8.171105035913699E+000  8.372931330300800E+000 
 8.579742734159201E+000  8.791662379692900E+000  9.008816440471300E+000  9.231334206551001E+000 
 9.459348161452800E+000  9.692994061040700E+000  9.932411014348400E+000  1.017774156640300E+001 
 1.042913178309300E+001  1.068673133813500E+001  1.095069360218700E+001  1.122117573416100E+001 
 1.149833877479500E+001  1.178234774253300E+001  1.207337173177300E+001  1.237158401354800E+001 
 1.267716213868200E+001  1.299028804350800E+001  1.331114815818300E+001  1.363993351769000E+001 
 1.397683987557700E+001  1.432206782050300E+001  1.467582289567000E+001  1.503831572119300E+001 
 1.540976211950600E+001  1.579038324385800E+001  1.618040570998100E+001  1.658006173101800E+001 
 1.698958925577400E+001  1.740923211039200E+001  1.783924014351800E+001  1.827986937506300E+001 
 1.873138214862700E+001  1.919404728769800E+001  1.966814025570500E+001  2.015394332002100E+001 
 2.065174572002500E+001  2.116184383931000E+001  2.168454138214100E+001  2.222014955427900E+001 
 2.276898724827000E+001  2.333138123330200E+001  2.390766634976500E+001  2.449818570860400E+001 
 2.510329089560700E+001  2.572334218072800E+001  2.635870873259200E+001  2.700976883828700E+001 
 2.767691012859300E+001  2.836052980876900E+001  2.906103489504600E+001  2.977884245695300E+001 
 3.051437986564000E+001  3.126808504832100E+001  3.204040674901500E+001  3.283180479571600E+001 
 3.364275037417000E+001  3.447372630841200E+001  3.532522734823000E+001  3.619776046373100E+001 
 3.709184514718500E+001  3.800801372232000E+001  3.894681166126200E+001  3.990879790929500E+001 
 4.089454521765500E+001  4.190464048453100E+001  4.293968510449800E+001  4.400029532658000E+001 
 4.508710262114600E+001  4.620075405588800E+001  4.734191268106900E+001  4.851125792429100E+001 
 4.970948599502100E+001  5.093731029909800E+001  5.219546186348600E+001  5.348468977151400E+001 
 5.480576160887000E+001  5.615946392061000E+001  5.754660267944900E+001  5.896800376563100E+001 
 6.042451345864200E+001  6.191699894107100E+001  6.344634881491500E+001  6.501347363064301E+001 
 6.661930642932001E+001  6.826480329812399E+001  6.995094393958800E+001  7.167873225489600E+001 
 7.344919694159201E+001  7.526339210604900E+001  7.712239789106900E+001
    </PP_R>
    <PP_RAB type="real" size="575" columns="4">
 1.556115231092810E-006  1.594551277300782E-006  1.633936693850131E-006  1.674294930188233E-006 
 1.715650014963880E-006  1.758026570333470E-006  1.801449826620725E-006  1.845945637338238E-006 
 1.891540494580511E-006  1.938261544796648E-006  1.986136604953109E-006  2.035194179095451E-006 
 2.085463475319110E-006  2.136974423159490E-006  2.189757691411542E-006  2.243844706389398E-006 
 2.299267670637226E-006  2.356059582101956E-006  2.414254253779871E-006  2.473886333848272E-006 
 2.534991326294264E-006  2.597605612053649E-006  2.661766470671384E-006  2.727512102497065E-006 
 2.794881651428790E-006  2.863915228218959E-006  2.934653934356146E-006  3.007139886534529E-006 
 3.081416241732092E-006  3.157527222902732E-006  3.235518145308615E-006  3.315435443497664E-006 
 3.397326698952057E-006  3.481240668416238E-006  3.567227312925961E-006  3.655337827555407E-006 
 3.745624671895814E-006  3.838141601291727E-006  3.932943698843646E-006  4.030087408205130E-006 
 4.129630567187788E-006  4.231632442197326E-006  4.336153763519689E-006  4.443256761478520E-006 
 4.553005203487121E-006  4.665464432013210E-006  4.780701403483812E-006  4.898784728150039E-006 
 5.019784710935179E-006  5.143773393295391E-006  5.270824596109824E-006  5.401013963633598E-006 
 5.534419008535359E-006  5.671119158046246E-006  5.811195801250049E-006  5.954732337540892E-006 
 6.101814226277980E-006  6.252529037667170E-006  6.406966504897433E-006  6.565218577568550E-006 
 6.727379476434454E-006  6.893545749502478E-006  7.063816329515091E-006  7.238292592854158E-006 
 7.417078419897715E-006  7.600280256869050E-006  7.788007179213701E-006  7.980370956540237E-006 
 8.177486119166810E-006  8.379470026310291E-006  8.586442935960234E-006  8.798528076478383E-006 
 9.015851719967430E-006  9.238543257450478E-006  9.466735275909540E-006  9.700563637224540E-006 
 9.940167559064056E-006  1.018568969777296E-005  1.043727623330795E-005  1.069507695627069E-005 
 1.095924535709041E-005  1.122993871741073E-005  1.150731820373059E-005  1.179154896336288E-005 
 1.208280022275796E-005  1.238124538826004E-005  1.268706214934993E-005  1.300043258443885E-005 
 1.332154326927462E-005  1.365058538802561E-005  1.398775484710984E-005  1.433325239183353E-005 
 1.468728372591178E-005  1.505005963394177E-005  1.542179610690025E-005  1.580271447074064E-005 
 1.619304151816783E-005  1.659300964366664E-005  1.700285698186531E-005  1.742282754931734E-005 
 1.785317138978556E-005  1.829414472311308E-005  1.874601009777412E-005  1.920903654718899E-005 
 1.968349974990459E-005  2.016968219372720E-005  2.066787334391232E-005  2.117836981550692E-005 
 2.170147554994995E-005  2.223750199603368E-005  2.278676829533567E-005  2.334960147223053E-005 
 2.392633662859463E-005  2.451731714332031E-005  2.512289487676084E-005  2.574343038021593E-005 
 2.637929311060842E-005  2.703086165044083E-005  2.769852393320632E-005  2.838267747435562E-005 
 2.908372960797346E-005  2.980209772928909E-005  3.053820954320371E-005  3.129250331892042E-005 
 3.206542815089854E-005  3.285744422622512E-005  3.366902309861353E-005  3.450064796914847E-005 
 3.535281397398755E-005  3.622602847914361E-005  3.712081138257969E-005  3.803769542372899E-005 
 3.897722650069578E-005  3.993996399526189E-005  4.092648110594519E-005  4.193736518926131E-005 
 4.297321810943737E-005  4.403465659673908E-005  4.512231261467915E-005  4.623683373626122E-005 
 4.737888352954679E-005  4.854914195272601E-005  4.974830575895818E-005  5.097708891120642E-005 
 5.223622300731297E-005  5.352645771559328E-005  5.484856122116852E-005  5.620332068333170E-005 
 5.759154270420846E-005  5.901405380900300E-005  6.047170093808526E-005  6.196535195125597E-005 
 6.349589614445340E-005  6.506424477922106E-005  6.667133162526607E-005  6.831811351641056E-005 
 7.000557092026564E-005  7.173470852199616E-005  7.350655582249131E-005  7.532216775130687E-005 
 7.718262529476221E-005  7.908903613954339E-005  8.104253533219062E-005  8.304428595489468E-005 
 8.509547981798027E-005  8.719733816948649E-005  8.935111242227120E-005  9.155808489910312E-005 
 9.381956959610987E-005  9.613691296513343E-005  9.851149471537144E-005  1.009447286348433E-004 
 1.034380634321227E-004  1.059929835988958E-004  1.086110102937884E-004  1.112937022480457E-004 
 1.140426566935726E-004  1.168595103139045E-004  1.197459402186579E-004  1.227036649420574E-004 
 1.257344454661272E-004  1.288400862691402E-004  1.320224363999883E-004  1.352833905790669E-004 
 1.386248903263691E-004  1.420489251174304E-004  1.455575335678311E-004  1.491528046469587E-004 
 1.528368789217362E-004  1.566119498311038E-004  1.604802649919323E-004  1.644441275372331E-004 
 1.685058974874017E-004  1.726679931553420E-004  1.769328925862788E-004  1.813031350331607E-004 
 1.857813224684793E-004  1.903701211334497E-004  1.950722631254456E-004  1.998905480246440E-004 
 2.048278445608527E-004  2.098870923215068E-004  2.150713035018489E-004  2.203835646983443E-004 
 2.258270387463933E-004  2.314049666034289E-004  2.371206692785327E-004  2.429775498097122E-004 
 2.489790952900152E-004  2.551288789436827E-004  2.614305622535800E-004  2.678878971412600E-004 
 2.745047282006318E-004  2.812849949871829E-004  2.882327343633685E-004  2.953520829021475E-004 
 3.026472793498338E-004  3.101226671497763E-004  3.177826970283811E-004  3.256319296449882E-004 
 3.336750383072123E-004  3.419168117533847E-004  3.503621570037037E-004  3.590161022817070E-004 
 3.678838000080638E-004  3.769705298682513E-004  3.862817019559917E-004  3.958228599943058E-004 
 4.055996846361588E-004  4.156179968466752E-004  4.258837613688009E-004  4.364030902746093E-004 
 4.471822466043977E-004  4.582276480955276E-004  4.695458710034702E-004  4.811436540172572E-004 
 4.930279022714808E-004  5.052056914576010E-004  5.176842720365864E-004  5.304710735559129E-004 
 5.435737090727267E-004  5.569999796868303E-004  5.707578791851037E-004  5.848555988009705E-004 
 5.993015320913504E-004  6.141042799339986E-004  6.292726556483849E-004  6.448156902428883E-004 
 6.607426377918977E-004  6.770629809453556E-004  6.937864365746966E-004  7.109229615580846E-004 
 7.284827587085852E-004  7.464762828486884E-004  7.649142470350369E-004  7.838076289367999E-004 
 8.031676773715499E-004  8.230059190026161E-004  8.433341652019917E-004  8.641645190824792E-004 
 8.855093827038064E-004  9.073814644565937E-004  9.297937866286852E-004  9.527596931584082E-004 
 9.762928575794208E-004  1.000407291161636E-003  1.025117351253323E-003  1.050437749829292E-003 
 1.076383562250060E-003  1.102970236237647E-003  1.130213601072719E-003  1.158129877019213E-003 
 1.186735684981576E-003  1.216048056400620E-003  1.246084443393726E-003  1.276862729145538E-003 
 1.308401238555438E-003  1.340718749147760E-003  1.373834502251696E-003  1.407768214457337E-003 
 1.442540089354431E-003  1.478170829561483E-003  1.514681649051645E-003  1.552094285783227E-003 
 1.590431014642072E-003  1.629714660703732E-003  1.669968612823100E-003  1.711216837559845E-003 
 1.753483893447562E-003  1.796794945615720E-003  1.841175780772439E-003  1.886652822557507E-003 
 1.933253147274673E-003  1.981004500012355E-003  2.029935311162664E-003  2.080074713348376E-003 
 2.131452558768089E-003  2.184099436969655E-003  2.238046693062820E-003  2.293326446381454E-003 
 2.349971609607081E-003  2.408015908364381E-003  2.467493901301079E-003  2.528441000663023E-003 
 2.590893493379520E-003  2.654888562665996E-003  2.720464310163769E-003  2.787659778624866E-003 
 2.856514975156822E-003  2.927070895043313E-003  2.999369546150874E-003  3.073453973940733E-003 
 3.149368287096994E-003  3.227157683788473E-003  3.306868478577873E-003  3.388548129998778E-003 
 3.472245268809747E-003  3.558009726949416E-003  3.645892567205050E-003  3.735946113615050E-003 
 3.828223982621262E-003  3.922781114992079E-003  4.019673808532447E-003  4.118959751603203E-003 
 4.220698057467825E-003  4.324949299487069E-003  4.431775547184442E-003  4.541240403200081E-003 
 4.653409041159121E-003  4.768348244475580E-003  4.886126446114161E-003  5.006813769333190E-003 
 5.130482069435744E-003  5.257204976550708E-003  5.387057939471566E-003  5.520118270576587E-003 
 5.656465191859705E-003  5.796179882098667E-003  5.939345525186577E-003  6.086047359658785E-003 
 6.236372729442209E-003  6.390411135859553E-003  6.548254290915234E-003  6.709996171900872E-003 
 6.875733077346666E-003  7.045563684357232E-003  7.219589107360904E-003  7.397912958312569E-003 
 7.580641408382906E-003  7.767883251169968E-003  7.959749967473801E-003  8.156355791670475E-003 
 8.357817779724818E-003  8.564255878884066E-003  8.775792999092419E-003  8.992555086169956E-003 
 9.214671196798386E-003  9.442273575359442E-003  9.675497732670650E-003  9.914482526667689E-003 
 1.015937024507634E-002  1.041030669012962E-002  1.066744126537600E-002  1.093092706463064E-002 
 1.120092096312705E-002  1.147758371091639E-002  1.176108002857610E-002  1.205157870528175E-002 
 1.234925269930219E-002  1.265427924097509E-002  1.296683993822715E-002  1.328712088470131E-002 
 1.361531277055336E-002  1.395161099598616E-002  1.429621578758702E-002  1.464933231754048E-002 
 1.501117082578361E-002  1.538194674518038E-002  1.576188082978650E-002  1.615119928628208E-002 
 1.655013390865340E-002  1.695892221619699E-002  1.737780759493716E-002  1.780703944253213E-002 
 1.824687331676262E-002  1.869757108768672E-002  1.915940109355239E-002  1.963263830056335E-002 
 2.011756446658714E-002  2.061446830891196E-002  2.112364567614187E-002  2.164539972434277E-002 
 2.218004109753399E-002  2.272788811264305E-002  2.328926694902523E-002  2.386451184266615E-002 
 2.445396528517972E-002  2.505797822772403E-002  2.567691028994959E-002  2.631112997411176E-002 
 2.696101488447031E-002  2.762695195211740E-002  2.830933766533440E-002  2.900857830566812E-002 
 2.972509018981911E-002  3.045929991750793E-002  3.121164462547060E-002  3.198257224771758E-002 
 3.277254178223672E-002  3.358202356425740E-002  3.441149954629526E-002  3.526146358509011E-002 
 3.613242173564152E-002  3.702489255251091E-002  3.793940739855817E-002  3.887651076130327E-002 
 3.983676057710803E-002  4.082072856336107E-002  4.182900055887578E-002  4.286217687268174E-002 
 4.392087264143679E-002  4.500571819567905E-002  4.611735943511180E-002  4.725645821316039E-002 
 4.842369273102550E-002  4.961975794148173E-002  5.084536596263627E-002  5.210124650191351E-002 
 5.338814729050972E-002  5.470683452858599E-002  5.605809334144121E-002  5.744272824697494E-002 
 5.886156363467658E-002  6.031544425645117E-002  6.180523572958637E-002  6.333182505210744E-002 
 6.489612113089559E-002  6.649905532282635E-002  6.814158198930086E-002  6.982467906443623E-002 
 7.154934863732751E-002  7.331661754867107E-002  7.512753800212346E-002  7.698318819077576E-002 
 7.888467293908773E-002  8.083312436068200E-002  8.282970253239084E-002  8.487559618494142E-002 
 8.697202341071106E-002  8.912023238895531E-002  9.132150212896266E-002  9.357714323154813E-002 
 9.588849866936655E-002  9.825694458649932E-002  1.006838911177854E-001  1.031707832283949E-001 
 1.057191015741368E-001  1.083303633830177E-001  1.110061233585790E-001  1.137479746055359E-001 
 1.165575495782913E-001  1.194365210528762E-001  1.223866031228820E-001  1.254095522200175E-001 
 1.285071681598519E-001  1.316812952133987E-001  1.349338232051697E-001  1.382666886383387E-001 
 1.416818758477046E-001  1.451814181811439E-001  1.487673992102184E-001  1.524419539707113E-001 
 1.562072702337864E-001  1.600655898085608E-001  1.640192098768328E-001  1.680704843607904E-001 
 1.722218253245020E-001  1.764757044100181E-001  1.808346543089453E-001  1.853012702703767E-001 
 1.898782116460535E-001  1.945682034737105E-001  1.993740380995122E-001  2.042985768405709E-001 
 2.093447516885323E-001  2.145155670552382E-001  2.198141015615022E-001  2.252435098700728E-001 
 2.308070245638633E-001  2.365079580705912E-001  2.423497046349346E-001  2.483357423394223E-001 
 2.544696351752022E-001  2.607550351640200E-001  2.671956845325729E-001  2.737954179405270E-001 
 2.805581647636635E-001  2.874879514333397E-001  2.945889038337294E-001  3.018652497584276E-001 
 3.093213214274452E-001  3.169615580667167E-001  3.247905085509732E-001  3.328128341121793E-001 
 3.410333111147515E-001  3.494568338992675E-001  3.580884176965935E-001  3.669332016136981E-001 
 3.759964516935451E-001  3.852835640503806E-001  3.948000680824178E-001  4.045516297640650E-001 
 4.145440550192339E-001  4.247832931782183E-001  4.352754405197037E-001  4.460267439005429E-001 
 4.570436044748849E-001  4.683325815054125E-001  4.799003962686171E-001  4.917539360564541E-001 
 5.039002582770359E-001  5.163465946564879E-001  5.291003555445042E-001  5.421691343264320E-001 
 5.555607119443023E-001  5.692830615293201E-001  5.833443531491050E-001  5.977529586718832E-001 
 6.125174567510904E-001  6.276466379328304E-001  6.431495098897717E-001  6.590353027840484E-001 
 6.753134747628221E-001  6.919937175894578E-001  7.090859624139273E-001  7.266003856855358E-001 
 7.445474152119748E-001  7.629377363677031E-001  7.817822984559968E-001  8.010923212278681E-001 
 8.208793015621918E-001  8.411550203107779E-001  8.619315493124597E-001  8.832212585804706E-001 
 9.050368236674043E-001  9.273912332119779E-001  9.502977966723306E-001  9.737701522501330E-001 
 9.978222750107214E-001  1.022468485203484E+000  1.047723456787988E+000  1.073602226170673E+000 
 1.100120201157076E+000  1.127293170125648E+000  1.155137311427766E+000  1.183669203020022E+000 
 1.212905832334616E+000  1.242864606393281E+000  1.273563362171202E+000  1.305020377216828E+000 
 1.337254380534074E+000  1.370284563733288E+000  1.404130592457498E+000  1.438812618091189E+000 
 1.474351289758040E+000  1.510767766615076E+000  1.548083730450458E+000  1.586321398592574E+000 