<UPF version="2.0.1">
  <PP_INFO>
    Generated using FHI98PP, converted with fhi2upf.x v.5.0.2
    Origin: Abinit web site
    Date: 08-Sep-2012 (PG)
    Pseudopotential type: SL
    Element: Cm
    Functional: PBE

    Suggested minimum cutoff for wavefunctions:   0. Ry
    Suggested minimum cutoff for charge density:   0. Ry
    The Pseudo was generated with a Non-Relativistic Calculation
    L component and cutoff radius for Local Potential:  0   0.0000

    Valence configuration: 
    nl pn  l   occ       Rcut    Rcut US       E pseu
    7s  7  0  2.00      0.000      0.000     0.000000
    7p  7  1  0.00      0.000      0.000     0.000000
    6d  6  2  1.00      0.000      0.000     0.000000
    5f  5  3  7.00      0.000      0.000     0.000000

    Generation configuration: not available.
    Comment:
    curium, fhi98PP : Trouiller-Martins-type, GGA Perdew/Burke/Ernzerhof (1996), l=
  </PP_INFO>
  <!--                               -->
  <!-- END OF HUMAN READABLE SECTION -->
  <!--                               -->
  <PP_HEADER generated="Generated using FHI98PP, converted with fhi2upf.x v.5.0.2"
             author="unknown"
             date="unknown"
             comment="curium, fhi98PP : Trouiller-Martins-type, GGA Perdew/Burke/Ernzerhof (1996), l="
             element="Cm"
             pseudo_type="SL"
             relativistic="no"
             is_ultrasoft="F"
             is_paw="F"
             is_coulomb="F"
             has_so="F"
             has_wfc="F"
             has_gipaw="F"
             paw_as_gipaw="F"
             core_correction="T"
             functional="PBE"
             z_valence="1.000000000000000E+001"
             total_psenergy="0.000000000000000E+000"
             wfc_cutoff="0.000000000000000E+000"
             rho_cutoff="0.000000000000000E+000"
             l_max="3"
             l_max_rho="0"
             l_local="0"
             mesh_size="575"
             number_of_wfc="4"
             number_of_proj="3"/>
  <PP_MESH dx="2.439988682353512E-002" mesh="575" xmin="-5.075173815233822E+000" rmax="7.872911451379900E+001"
zmesh="9.600000000000000E+001">
    <PP_R type="real" size="575" columns="4">
 6.510416666666700E-005  6.671223958333300E-005  6.836003190104201E-005  7.004852468899699E-005 
 7.177872324881600E-005  7.355165771306100E-005  7.536838365857400E-005  7.722998273494101E-005 
 7.913756330849401E-005  8.109226112221400E-005  8.309523997193200E-005  8.514769239923899E-005 
 8.725084040150000E-005  8.940593615941700E-005  9.161426278255500E-005  9.387713507328400E-005 
 9.619590030959400E-005  9.857193904724100E-005  1.010066659417100E-004  1.035015305904700E-004 
 1.060580183960500E-004  1.086776514504400E-004  1.113619894412600E-004  1.141126305804600E-004 
 1.169312125558000E-004  1.198194135059300E-004  1.227789530195200E-004  1.258115931591000E-004 
 1.289191395101300E-004  1.321034422560300E-004  1.353663972797600E-004  1.387099472925700E-004 
 1.421360829906900E-004  1.456468442405600E-004  1.492443212933100E-004  1.529306560292500E-004 
 1.567080432331700E-004  1.605787319010300E-004  1.645450265789900E-004  1.686092887354900E-004 
 1.727739381672600E-004  1.770414544399900E-004  1.814143783646600E-004  1.858953135102600E-004 
 1.904869277539700E-004  1.951919548694900E-004  2.000131961547700E-004  2.049535220997900E-004 
 2.100158740956500E-004  2.152032661858200E-004  2.205187868606000E-004  2.259656008960600E-004 
 2.315469512381900E-004  2.372661609337800E-004  2.431266351088400E-004  2.491318629960300E-004 
 2.552854200120300E-004  2.615909698863300E-004  2.680522668425200E-004  2.746731578335300E-004 
 2.814575848320200E-004  2.884095871773700E-004  2.955333039806500E-004  3.028329765889700E-004 
 3.103129511107200E-004  3.179776810031600E-004  3.258317297239300E-004  3.338797734481200E-004 
 3.421266038522800E-004  3.505771309674400E-004  3.592363861023300E-004  3.681095248390600E-004 
 3.772018301025800E-004  3.865187153061200E-004  3.960657275741800E-004  4.058485510452600E-004 
 4.158730102560800E-004  4.261450736094000E-004  4.366708569275600E-004  4.474566270936700E-004 
 4.585088057828800E-004  4.698339732857200E-004  4.814388724258700E-004  4.933304125747900E-004 
 5.055156737653901E-004  5.180019109074000E-004  5.307965581068101E-004  5.439072330920501E-004 
 5.573417417494200E-004  5.711080827706301E-004  5.852144524150700E-004  5.996692493897200E-004 
 6.144810798496400E-004  6.296587625219300E-004  6.452113339562200E-004  6.611480539049400E-004 
 6.774784108363900E-004  6.942121275840500E-004  7.113591671353800E-004  7.289297385636200E-004 
 7.469343031061400E-004  7.653835803928600E-004  7.842885548285700E-004  8.036604821328300E-004 
 8.235108960415100E-004  8.438516151737400E-004  8.646947500685300E-004  8.860527103952200E-004 
 9.079382123419900E-004  9.303642861868300E-004  9.533442840556501E-004  9.768918878718200E-004 
 1.001021117502300E-003  1.025746339104600E-003  1.051082273680400E-003  1.077044005840400E-003 
 1.103646992784600E-003  1.130907073506400E-003  1.158840478222000E-003  1.187463838034100E-003 
 1.216794194833500E-003  1.246849011445900E-003  1.277646182028600E-003  1.309204042724700E-003 
 1.341541382580000E-003  1.374677454729800E-003  1.408631987861600E-003  1.443425197961800E-003 
 1.479077800351400E-003  1.515611022020100E-003  1.553046614264000E-003  1.591406865636300E-003 
 1.630714615217500E-003  1.670993266213400E-003  1.712266799888900E-003  1.754559789846100E-003 
 1.797897416655300E-003  1.842305482846700E-003  1.887810428273000E-003  1.934439345851400E-003 
 1.982219997693900E-003  2.031180831636900E-003  2.081350998178400E-003  2.132760367833400E-003 
 2.185439548918900E-003  2.239419905777200E-003  2.294733577449900E-003  2.351413496812900E-003 
 2.409493410184100E-003  2.469007897415700E-003  2.529992392481900E-003  2.592483204576200E-003 
 2.656517539729200E-003  2.722133522960500E-003  2.789370220977600E-003  2.858267665435800E-003 
 2.928866876772000E-003  3.001209888628300E-003  3.075339772877400E-003  3.151300665267500E-003 
 3.229137791699600E-003  3.308897495154600E-003  3.390627263284900E-003  3.474375756688000E-003 
 3.560192837878200E-003  3.648129600973800E-003  3.738238402117900E-003  3.830572890650200E-003 
 3.925188041049300E-003  4.022140185663200E-003  4.121487048249000E-003  4.223287778340800E-003 
 4.327602986465800E-003  4.434494780231500E-003  4.544026801303200E-003  4.656264263295400E-003 
 4.771273990598800E-003  4.889124458166600E-003  5.009885832283300E-003  5.133630012340700E-003 
 5.260430673645500E-003  5.390363311284600E-003  5.523505285073300E-003  5.659935865614600E-003 
 5.799736281495300E-003  5.942989767648200E-003  6.089781614909200E-003  6.240199220797400E-003 
 6.394332141551100E-003  6.552272145447400E-003  6.714113267440000E-003  6.879951865145700E-003 
 7.049886676214800E-003  7.224018877117300E-003  7.402452143382100E-003  7.585292711323700E-003 
 7.772649441293400E-003  7.964633882493299E-003  8.161360339390900E-003  8.362945939773899E-003 
 8.569510704486300E-003  8.781177618887101E-003  8.998072706073600E-003  9.220325101913601E-003 
 9.448067131930899E-003  9.681434390089600E-003  9.920565819524800E-003  1.016560379526700E-002 
 1.041669420901000E-002  1.067398655597300E-002  1.093763402390500E-002  1.120779358429600E-002 
 1.148462608582800E-002  1.176829635014800E-002  1.205897326999600E-002  1.235682990976500E-002 
 1.266204360853600E-002  1.297479608566700E-002  1.329527354898300E-002  1.362366680564300E-002 
 1.396017137574300E-002  1.430498760872300E-002  1.465832080265900E-002  1.502038132648500E-002 
 1.539138474524900E-002  1.577155194845600E-002  1.616110928158300E-002  1.656028868083800E-002 
 1.696932781125500E-002  1.738847020819300E-002  1.781796542233500E-002  1.825806916826700E-002 
 1.870904347672300E-002  1.917115685059800E-002  1.964468442480800E-002  2.012990813010100E-002 
 2.062711686091400E-002  2.113660664737900E-002  2.165868083156900E-002  2.219365024810900E-002 
 2.274183340923700E-002  2.330355669444500E-002  2.387915454479800E-002  2.446896966205500E-002 
 2.507335321270800E-002  2.569266503706100E-002  2.632727386347700E-002  2.697755752790500E-002 
 2.764390319884400E-002  2.832670760785500E-002  2.902637728576900E-002  2.974332880472800E-002 
 3.047798902620500E-002  3.123079535515200E-002  3.200219600042400E-002  3.279265024163500E-002 
 3.360262870260300E-002  3.443261363155700E-002  3.528309918825700E-002  3.615459173820700E-002 
 3.704761015414000E-002  3.796268612494800E-002  3.890036447223400E-002  3.986120347469800E-002 
 4.084577520052300E-002  4.185466584797600E-002  4.288847609442100E-002  4.394782145395300E-002 
 4.503333264386600E-002  4.614565596016900E-002  4.728545366238600E-002  4.845340436784700E-002 
 4.965020345573200E-002  5.087656348108900E-002  5.213321459907200E-002  5.342090499966900E-002 
 5.474040135316100E-002  5.609248926658400E-002  5.747797375146800E-002  5.889767970313000E-002 
 6.035245239179700E-002  6.184315796587400E-002  6.337068396763100E-002  6.493593986163200E-002 
 6.653985757621400E-002  6.818339205834700E-002  6.986752184218800E-002  7.159324963169000E-002 
 7.336160289759300E-002  7.517363448916300E-002  7.703042326104600E-002  7.893307471559299E-002 
 8.088272166106900E-002  8.288052488609700E-002  8.492767385078399E-002  8.702538739489800E-002 
 8.917491446355200E-002  9.137753485080199E-002  9.363455996161600E-002  9.594733359266799E-002 
 9.831723273240700E-002  1.007456683809000E-001  1.032340863899100E-001  1.057839683237400E-001 
 1.083968323413300E-001  1.110742341001600E-001  1.138177676824400E-001  1.166290665441900E-001 
 1.195098044878400E-001  1.224616966586900E-001  1.254865005661500E-001  1.285860171301400E-001 
 1.317620917532500E-001  1.350166154195600E-001  1.383515258204200E-001  1.417688085081900E-001 
 1.452704980783400E-001  1.488586793808700E-001  1.525354887615800E-001  1.563031153339900E-001 
 1.601638022827400E-001  1.641198481991200E-001  1.681736084496400E-001  1.723274965783500E-001 
 1.765839857438300E-001  1.809456101917100E-001  1.854149667634400E-001  1.899947164425000E-001 
 1.946875859386300E-001  1.994963693113100E-001  2.044239296333000E-001  2.094732006952500E-001 
 2.146471887524200E-001  2.199489743146000E-001  2.253817139801700E-001  2.309486423154800E-001 
 2.366530737806800E-001  2.424984047030600E-001  2.484881152992200E-001  2.546257717471200E-001 
 2.609150283092700E-001  2.673596295085100E-001  2.739634123573700E-001  2.807303086425900E-001 
 2.876643472660700E-001  2.947696566435400E-001  3.020504671626300E-001  3.095111137015500E-001 
 3.171560382099800E-001  3.249897923537700E-001  3.330170402249000E-001  3.412425611184600E-001 
 3.496712523780800E-001  3.583081323118200E-001  3.671583431799300E-001  3.762271542564700E-001 
 3.855199649666000E-001  3.950423081012800E-001  4.047998531113800E-001  4.147984094832300E-001 
 4.250439301974700E-001  4.355425152733500E-001  4.463004154006000E-001  4.573240356609900E-001 
 4.686199393418200E-001  4.801948518435600E-001  4.920556646841000E-001  5.042094396017900E-001 
 5.166634127599600E-001  5.294249990551300E-001  5.425017965317900E-001  5.559015909061300E-001 
 5.696323602015100E-001  5.837022794984800E-001  5.981197258021000E-001  6.128932830294100E-001 
 6.280317471202400E-001  6.435441312741100E-001  6.594396713165800E-001  6.757278311981000E-001 
 6.924183086286900E-001  7.095210408518200E-001  7.270462105608601E-001  7.450042519617101E-001 
 7.634058569851599E-001  7.822619816527000E-001  8.015838525995200E-001  8.213829737587300E-001 
 8.416711332105700E-001  8.624604102008701E-001  8.837631823328300E-001  9.055921329364500E-001 
 9.279602586199800E-001  9.508808770078900E-001  9.743676346699900E-001  9.984345152463400E-001 
 1.023095847772900E+000  1.048366315212900E+000  1.074260963198700E+000  1.100795208989700E+000 
 1.127984850651700E+000  1.155846076462800E+000  1.184395474551500E+000  1.213650042772900E+000 
 1.243627198829400E+000  1.274344790640400E+000  1.305821106969300E+000  1.338074888311400E+000 
 1.371125338052700E+000  1.404992133902600E+000  1.439695439610000E+000  1.475255916968400E+000 
 1.511694738117500E+000  1.549033598149000E+000  1.587294728023300E+000  1.626500907805400E+000 
 1.666675480228200E+000  1.707842364589900E+000  1.750026070995200E+000  1.793251714948800E+000 
 1.837545032308100E+000  1.882932394606100E+000  1.929440824752800E+000  1.977098013124200E+000 
 2.025932334048400E+000  2.075972862699400E+000  2.127249392408100E+000  2.179792452400600E+000 
 2.233633325974800E+000  2.288804069126400E+000  2.345337529633800E+000  2.403267366615800E+000 
 2.462628070571200E+000  2.523454983914300E+000  2.585784322017000E+000  2.649653194770800E+000 
 2.715099628681700E+000  2.782162589510100E+000  2.850882005471000E+000  2.921298791006100E+000 
 2.993454871144000E+000  3.067393206461200E+000  3.143157818660800E+000  3.220793816781800E+000 
 3.300347424056300E+000  3.381866005430500E+000  3.465398095764600E+000  3.550993428730000E+000 
 3.638702966419600E+000  3.728578929690200E+000  3.820674829253500E+000  3.915045497536100E+000 
 4.011747121325200E+000  4.110837275221900E+000  4.212374955919900E+000  4.316420617331100E+000 
 4.423036206579200E+000  4.532285200881700E+000  4.644232645343500E+000  4.758945191683500E+000 
 4.876491137918100E+000  4.996940469024700E+000  5.120364898609600E+000  5.246837911605200E+000 
 5.376434808021900E+000  5.509232747780000E+000  5.645310796650200E+000  5.784749973327400E+000 
 5.927633297668600E+000  6.074045840121000E+000  6.224074772372000E+000  6.377809419249600E+000 
 6.535341311905100E+000  6.696764242309100E+000  6.862174319094200E+000  7.031670024775800E+000 
 7.205352274387800E+000  7.383324475565100E+000  7.565692590111600E+000  7.752565197087300E+000 
 7.944053557455400E+000  8.140271680324600E+000  8.341336390828600E+000  8.547367399682001E+000 
 8.758487374454200E+000  8.974822012603200E+000  9.196500116314500E+000  9.423653669187500E+000 
 9.656417914816400E+000  9.894931437312399E+000  1.013933624381400E+001  1.038977784903600E+001 
 1.064640536190700E+001  1.090937157434600E+001  1.117883305223300E+001  1.145495022862300E+001 
 1.173788749927000E+001  1.202781332050200E+001  1.232490030951800E+001  1.262932534716300E+001 
 1.294126968323800E+001  1.326091904441400E+001  1.358846374481100E+001  1.392409879930800E+001 
 1.426802403965100E+001  1.462044423343100E+001  1.498156920599600E+001  1.535161396538400E+001 
 1.573079883032900E+001  1.611934956143900E+001  1.651749749560600E+001  1.692547968374800E+001 
 1.734353903193600E+001  1.777192444602500E+001  1.821089097984200E+001  1.866069998704400E+001 
 1.912161927672400E+001  1.959392327285900E+001  2.007789317769800E+001  2.057381713918800E+001 
 2.108199042252600E+001  2.160271558596200E+001  2.213630266093500E+001  2.268306933666000E+001 
 2.324334114927600E+001  2.381745167566300E+001  2.440574273205200E+001  2.500856457753300E+001 
 2.562627612259900E+001  2.625924514282700E+001  2.690784849785500E+001  2.757247235575200E+001 
 2.825351242293900E+001  2.895137417978500E+001  2.966647312202600E+001  3.039923500814000E+001 
 3.115009611284100E+001  3.191950348682800E+001  3.270791522295300E+001  3.351580072896000E+001 
 3.434364100696500E+001  3.519192893983700E+001  3.606116958465100E+001  3.695188047339200E+001 
 3.786459192108500E+001  3.879984734153500E+001  3.975820357087100E+001  4.074023119907200E+001 
 4.174651490968900E+001  4.277765382795800E+001  4.383426187750900E+001  4.491696814588300E+001 
 4.602641725908700E+001  4.716326976538600E+001  4.832820252859100E+001  4.952190913104700E+001 
 5.074510028658400E+001  5.199850426366300E+001  5.328286731897500E+001  5.459895414175400E+001 
 5.594754830905500E+001  5.732945275228900E+001  5.874549023527000E+001  6.019650384408200E+001 
 6.168335748903000E+001  6.320693641901000E+001  6.476814774855900E+001  6.636792099794800E+001 
 6.800720864659800E+001  6.968698670016900E+001  7.140825527166299E+001  7.317203917687300E+001 
 7.497938854454200E+001  7.683137944159201E+001  7.872911451379900E+001
    </PP_R>
    <PP_RAB type="real" size="575" columns="4">
 1.588534298407243E-006  1.627771095577885E-006  1.667977041638675E-006  1.709176074567132E-006 
 1.751392723608960E-006  1.794652123882083E-006  1.838980031341980E-006  1.884402838116132E-006 
 1.930947588217599E-006  1.978641993646579E-006  2.027514450889633E-006  2.077594057826613E-006 
 2.128910631054926E-006  2.181494723641981E-006  2.235377643315948E-006  2.290591471105849E-006 
 2.347169080442161E-006  2.405144156729082E-006  2.464551217400343E-006  2.525425632470126E-006 
 2.587803645592026E-006  2.651722395638333E-006  2.717219938810457E-006  2.784335271299097E-006 
 2.853108352500249E-006  2.923580128807048E-006  2.995792557988424E-006  3.069788634170685E-006 
 3.145612413434707E-006  3.223309040046539E-006  3.302924773335836E-006  3.384507015237230E-006 
 3.468104338513432E-006  3.553766515674713E-006  3.641544548612077E-006  3.731490698962679E-006 
 3.823658519226997E-006  3.918102884651920E-006  4.014880025902935E-006  4.114047562542711E-006 
 4.215664537337599E-006  4.319791451409806E-006  4.426490300259682E-006  4.535824610675924E-006 
 4.647859478559779E-006  4.762661607680131E-006  4.880299349389918E-006  5.000842743319781E-006 
 5.124363559079662E-006  5.250935338989110E-006  5.380633441861904E-006  5.513535087875971E-006 
 5.649719404546441E-006  5.789267473838902E-006  5.932262380442616E-006  6.078789261239589E-006 
 6.228935355992160E-006  6.382790059285236E-006  6.540444973749524E-006  6.701993964601132E-006 
 6.867533215526823E-006  7.037161285950314E-006  7.210979169713262E-006  7.389090355205129E-006 
 7.571600886978756E-006  7.758619428887258E-006  7.950257328780577E-006  8.146628684801675E-006 
 8.347850413316068E-006  8.554042318525186E-006  8.765327163792617E-006  8.981830744738355E-006 
 9.203681964133276E-006  9.431012908647519E-006  9.663958927491087E-006  9.902658713000061E-006 
 1.014725438321121E-005  1.039789156647640E-005  1.065471948816856E-005  1.091789105952631E-005 
 1.118756296869652E-005  1.146389577402339E-005  1.174705399964159E-005  1.203720623343276E-005 
 1.233452522739862E-005  1.263918800051548E-005  1.295137594412815E-005  1.327127492994816E-005 
 1.359907542071779E-005  1.393497258360950E-005  1.427916640642479E-005  1.463186181666342E-005 
 1.499326880353486E-005  1.536360254298227E-005  1.574308352579389E-005  1.613193768888104E-005 
 1.653039654979635E-005  1.693869734457634E-005  1.735708316898748E-005  1.778580312326137E-005 
 1.822511246040589E-005  1.867527273817788E-005  1.913655197481103E-005  1.960922480858872E-005 
 2.009357266136084E-005  2.058988390609657E-005  2.109845403857712E-005  2.161958585332991E-005 
 2.215358962390735E-005  2.270078328761769E-005  2.326149263482198E-005  2.383605150290197E-005 
 2.442480197502477E-005  2.502809458380772E-005  2.564628852002573E-005  2.627975184647266E-005 
 2.692886171707912E-005  2.759400460149147E-005  2.827557651514811E-005  2.897398325507268E-005 
 2.968964064147194E-005  3.042297476531660E-005  3.117442224201959E-005  3.194443047139732E-005 
 3.273345790404083E-005  3.354197431427245E-005  3.437046107983434E-005  3.521941146850670E-005 
 3.608933093177744E-005  3.698073740579284E-005  3.789416161971600E-005  3.883014741172248E-005 
 3.978925205279162E-005  4.077204657849626E-005  4.177911612898582E-005  4.281106029737040E-005 
 4.386849348671549E-005  4.495204527583770E-005  4.606236079415056E-005  4.720010110576748E-005 
 4.836594360307921E-005  4.956058241007430E-005  5.078472879560481E-005  5.203911159685610E-005 
 5.332447765329880E-005  5.464159225133536E-005  5.599123957994343E-005  5.737422319756772E-005 
 5.879136651054573E-005  6.024351326335749E-005  6.173152804096320E-005  6.325629678357493E-005 
 6.481872731412844E-005  6.641974987878713E-005  6.806031770079259E-005  6.974140754800346E-005 
 7.146402031443758E-005  7.322918161620497E-005  7.503794240212477E-005  7.689137957945793E-005 
 7.879059665507037E-005  8.073672439245109E-005  8.273092148494418E-005  8.477437524562140E-005 
 8.686830231418841E-005  8.901394938134907E-005  9.121259393106953E-005  9.346554500116665E-005 
 9.577414396269644E-005  9.813976531857462E-005  1.005638175219414E-004  1.030477438147346E-004 
 1.055930230869581E-004  1.082011707572058E-004  1.108737396749084E-004  1.136123210448789E-004 
 1.164185453746875E-004  1.192940834454425E-004  1.222406473065446E-004  1.252599912950163E-004 
 1.283539130800028E-004  1.315242547330802E-004  1.347729038249866E-004  1.381017945494635E-004 
 1.415129088748357E-004  1.450082777240434E-004  1.485899821838294E-004  1.522601547437686E-004 
 1.560209805659398E-004  1.598746987859182E-004  1.638236038459316E-004  1.678700468609245E-004 
 1.720164370183893E-004  1.762652430127434E-004  1.806189945151582E-004  1.850802836796841E-004 
 1.896517666865725E-004  1.943361653237296E-004  1.991362686072262E-004  2.040549344418257E-004 
 2.090950913225384E-004  2.142597400782049E-004  2.195519556581362E-004  2.249748889628918E-004 
 2.305317687202760E-004  2.362259034076670E-004  2.420606832218361E-004  2.480395820974139E-004 
 2.541661597752177E-004  2.604440639216766E-004  2.668770323005290E-004  2.734688949983654E-004 
 2.802235767048224E-004  2.871450990494327E-004  2.942375829959376E-004  3.015052512959397E-004 
 3.089524310029447E-004  3.165835560487213E-004  3.244031698831253E-004  3.324159281792414E-004 
 3.406266016052838E-004  3.490400786649135E-004  3.576613686079501E-004  3.664956044125743E-004 
 3.755480458415605E-004  3.848240825738312E-004  3.943292374134082E-004  4.040691695775169E-004 
 4.140496780660889E-004  4.242767051143214E-004  4.347563397306361E-004  4.454948213219908E-004 
 4.564985434086392E-004  4.677740574308312E-004  4.793280766493784E-004  4.911674801426239E-004 
 5.032993169021347E-004  5.157308100296277E-004  5.284693610373532E-004  5.415225542549818E-004 
 5.548981613450727E-004  5.686041459302923E-004  5.826486683347756E-004  5.970400904426565E-004 
 6.117869806765959E-004  6.268981190992862E-004  6.423825026410531E-004  6.582493504562899E-004 
 6.745081094125541E-004  6.911684597150332E-004  7.082403206699942E-004  7.257338565905553E-004 
 7.436594828483474E-004  7.620278720746952E-004  7.808499605149339E-004  8.001369545396657E-004 
 8.199003373167860E-004  8.401518756485035E-004  8.609036269770346E-004  8.821679465633688E-004 
 9.039574948434666E-004  9.262852449661182E-004  9.491644905167761E-004  9.726088534325361E-004 
 9.966322921123188E-004  1.021249109727495E-003  1.046473962737764E-003  1.072321869617382E-003 
 1.098808219796940E-003  1.125948782825912E-003  1.153759717761733E-003  1.182257582790449E-003 
 1.211459345085353E-003  1.241382390908972E-003  1.272044535964426E-003  1.303464036002745E-003 
 1.335659597692017E-003  1.368650389755008E-003  1.402456054381942E-003  1.437096718925194E-003 
 1.472593007882638E-003  1.508966055177330E-003  1.546237516740208E-003  1.584429583403704E-003 
 1.623564994113768E-003  1.663667049468390E-003  1.704759625590255E-003  1.746867188342334E-003 
 1.790014807894395E-003  1.834228173649374E-003  1.879533609538530E-003  1.925958089694111E-003 
 1.973529254509576E-003  2.022275427095953E-003  2.072225630145232E-003  2.123409603209811E-003 
 2.175857820409094E-003  2.229601508573205E-003  2.284672665834943E-003  2.341104080681068E-003 
 2.398929351473894E-003  2.458182906455361E-003  2.518900024244851E-003  2.581116854843680E-003 
 2.644870441158164E-003  2.710198741054749E-003  2.777140649958949E-003  2.845736024012782E-003 
 2.916025703806106E-003  2.988051538690125E-003  3.061856411695536E-003  3.137484265064564E-003 
 3.214980126411550E-003  3.294390135534031E-003  3.375761571881645E-003  3.459142882707259E-003 
 3.544583711910072E-003  3.632134929594129E-003  3.721848662355165E-003  3.813778324315313E-003 
 3.907978648925912E-003  4.004505721554292E-003  4.103417012876726E-003  4.204771413094876E-003 
 4.308629266998191E-003  4.415052409893227E-003  4.524104204417462E-003  4.635849578266647E-003 
 4.750355062849839E-003  4.867688832902129E-003  4.987920747074827E-003  5.111122389527758E-003 
 5.237367112549029E-003  5.366730080228873E-003  5.499288313210512E-003  5.635120734546807E-003 
 5.774308216690299E-003  5.916933629642481E-003  6.063081890294514E-003  6.212840012985014E-003 
 6.366297161305650E-003  6.523544701189925E-003  6.684676255309311E-003  6.849787758815280E-003 
 7.018977516458212E-003  7.192346261114683E-003  7.369997213764083E-003  7.552036144944130E-003 
 7.738571437724292E-003  7.929714152236167E-003  8.125578091796202E-003  8.326279870663691E-003 
 8.531938983468938E-003  8.742677876360657E-003  8.958622019906961E-003  9.179899983798558E-003 
 9.406643513398266E-003  9.638987608179323E-003  9.877070602101313E-003  1.012103424597319E-002 
 1.037102379184883E-002  1.062718807950756E-002  1.088967962507135E-002  1.115865471181050E-002 
 1.143427348319230E-002  1.171670003822708E-002  1.200610252917139E-002  1.230265326164174E-002 
 1.260652879720443E-002  1.291791005849536E-002  1.323698243694015E-002  1.356393590313269E-002 
 1.389896511994003E-002  1.424226955840238E-002  1.459405361649510E-002  1.495452674082248E-002 
 1.532390355132089E-002  1.570240396903851E-002  1.609025334707375E-002  1.648768260474649E-002 
 1.689492836508365E-002  1.731223309570125E-002  1.773984525316507E-002  1.817801943091817E-002 
 1.862701651086174E-002  1.908710381868019E-002  1.955855528300155E-002  2.004165159849173E-002 
 2.053668039297446E-002  2.104393639868090E-002  2.156372162772829E-002  2.209634555193315E-002 
 2.264212528706589E-002  2.320138578165633E-002  2.377446001046337E-002  2.436168917272185E-002 
 2.496342289528748E-002  2.558001944080130E-002  2.621184592099010E-002  2.685927851523837E-002 
 2.752270269456365E-002  2.820251345111944E-002  2.889911553336377E-002  2.961292368703732E-002 
 3.034436290210737E-002  3.109386866578732E-002  3.186188722183427E-002  3.264887583621256E-002 
 3.345530306936721E-002  3.428164905518054E-002  3.512840578684364E-002  3.599607740977949E-002 
 3.688518052180056E-002  3.779624448068898E-002  3.872981171936248E-002  3.968643806882889E-002 
 4.066669308912912E-002  4.167116040843216E-002  4.270043807051872E-002  4.375513889086099E-002 
 4.483589082146683E-002  4.594333732475681E-002  4.707813775667658E-002  4.824096775926664E-002 
 4.943251966292131E-002  5.065350289859558E-002  5.190464442019150E-002  5.318668913737071E-002 
 5.450040035906144E-002  5.584656024793082E-002  5.722597028605417E-002  5.863945175212081E-002 
 6.008784621039794E-002  6.157201601179456E-002  6.309284480728630E-002  6.465123807402579E-002 
 6.624812365445572E-002  6.788445230871984E-002  6.956119828074524E-002  7.127935987827881E-002 
 7.303996006727351E-002  7.484404708093378E-002  7.669269504383305E-002  7.858700461141763E-002 
 8.052810362531940E-002  8.251714778486502E-002  8.455532133515035E-002  8.664383777212893E-002 
 8.878394056509975E-002  9.097690389705859E-002  9.322403342331477E-002  9.552666704887158E-002 
 9.788617572497771E-002  1.003039642653838E-001  1.027814721827393E-001  1.053201745456524E-001 
 1.079215828569306E-001  1.105872459534966E-001  1.133187509285485E-001  1.161177240764840E-001 
 1.189858318611736E-001  1.219247819081452E-001  1.249363240212761E-001  1.280222512246003E-001 
 1.311844008298491E-001  1.344246555303454E-001  1.377449445219458E-001  1.411472446516364E-001 
 1.446335815945321E-001  1.482060310599167E-001  1.518667200270969E-001  1.556178280117665E-001 
 1.594615883636580E-001  1.634002895962390E-001  1.674362767492677E-001  1.715719527849739E-001 
 1.758097800187637E-001  1.801522815852253E-001  1.846020429403813E-001  1.891617134010074E-001 
 1.938340077220133E-001  1.986217077127483E-001  2.035276638932527E-001  2.085547971914145E-001 
 2.137061006820437E-001  2.189846413688898E-001  2.243935620107014E-001  2.299360829923665E-001 
 2.356155042422772E-001  2.414352071970622E-001  2.473986568148293E-001  2.535094036381506E-001 
 2.597710859080083E-001  2.661874317299336E-001  2.727622612936789E-001  2.794994891476290E-001 
 2.864031265295757E-001  2.934772837548570E-001  3.007261726635922E-001  3.081541091283806E-001 
 3.157655156238534E-001  3.235649238597632E-001  3.315569774790986E-001  3.397464348228365E-001 
 3.481381717629627E-001  3.567371846055231E-001  3.655485930652613E-001  3.745776433139708E-001 
 3.838297111038262E-001  3.933103049681121E-001  4.030250695008112E-001  4.129797887174942E-001 
 4.231803894988023E-001  4.336329451194271E-001  4.443436788638814E-001  4.553189677318170E-001 
 4.665653462347931E-001  4.780895102867905E-001  4.898983211908592E-001  5.019988097242943E-001 
 5.143981803244858E-001  5.271038153784909E-001  5.401232796183334E-001  5.534643246249039E-001 
 5.671348934431512E-001  5.811431253111942E-001  5.954973605063837E-001  6.102061453108747E-001 
 6.252782371000760E-001  6.407226095564432E-001  6.565484580124915E-001  6.727652049253996E-001 
 6.893825054870552E-001  7.064102533725709E-001  7.238585866308811E-001  7.417378937206628E-001 
 7.600588196955617E-001  7.788322725420378E-001  7.980694296738347E-001  8.177817445867800E-001 
 8.379809536780658E-001  8.586790832339131E-001  8.798884565897913E-001  9.016217014675623E-001 
 9.238917574938164E-001  9.467118839038940E-001  9.700956674363223E-001  9.940570304220113E-001 
 1.018610239073433E+000  1.043769911978539E+000  1.069551028804420E+000  1.095968939215877E+000 
 1.123039372014526E+000  1.150778444503274E+000  1.179202672082504E+000  1.208328978082937E+000 
 1.238174703841589E+000  1.268757619026486E+000  1.300095932216428E+000  1.332208301742182E+000 
 1.365113846795206E+000  1.398832158811056E+000  1.433383313133676E+000  1.468787880968098E+000 
 1.505066941627990E+000  1.542242095086224E+000  1.580335474834841E+000  1.619369761063251E+000 