<UPF version="2.0.1">
  <PP_INFO>
    Generated using FHI98PP, converted with fhi2upf.x v.5.0.1
    Author: Abinit web site
    Generation date: 10-Jul-2012, PG
    Pseudopotential type: SL
    Element: Co
    Functional: SLA-PW

    Suggested minimum cutoff for wavefunctions:   0. Ry
    Suggested minimum cutoff for charge density:   0. Ry
    The Pseudo was generated with a Non-Relativistic Calculation
    L component and cutoff radius for Local Potential:  1   0.0000

    Valence configuration: 
    nl pn  l   occ       Rcut    Rcut US       E pseu
    1s  1  0  2.00      0.000      0.000     0.000000
    2p  2  1  6.00      0.000      0.000     0.000000
    3d  3  2 10.00      0.000      0.000     0.000000
    4f  4  3 14.00      0.000      0.000     0.000000

    Generation configuration: not available.
    Comment:
    cobalt, fhi98PP : Trouiller-Martins-type, LDA Ceperley/Alder Perdew/Wang (1992),
  </PP_INFO>
  <!--                               -->
  <!-- END OF HUMAN READABLE SECTION -->
  <!--                               -->
  <PP_HEADER generated="Generated using FHI98PP, converted with fhi2upf.x v.5.0.1"
             author="Abinit web site"
             date="10-Jul-2012, PG"
             comment="cobalt, fhi98PP : Trouiller-Martins-type, LDA Ceperley/Alder Perdew/Wang (1992),"
             element="Co"
             pseudo_type="SL"
             relativistic="no"
             is_ultrasoft="F"
             is_paw="F"
             is_coulomb="F"
             has_so="F"
             has_wfc="F"
             has_gipaw="F"
             paw_as_gipaw="F"
             core_correction="F"
             functional="SLA-PW"
             z_valence="9.000000000000000E+000"
             total_psenergy="0.000000000000000E+000"
             wfc_cutoff="0.000000000000000E+000"
             rho_cutoff="0.000000000000000E+000"
             l_max="3"
             l_max_rho="0"
             l_local="1"
             mesh_size="523"
             number_of_wfc="4"
             number_of_proj="3"/>
  <PP_MESH dx="2.439988682353512E-002" mesh="523" xmin="-5.075173815233834E+000" rmax="7.870685390554701E+001"
zmesh="2.700000000000000E+001">
    <PP_R type="real" size="523" columns="4">
 2.314814814814800E-004  2.371990740740700E-004  2.430578912037000E-004  2.490614211164400E-004 
 2.552132382180100E-004  2.615170052020000E-004  2.679764752304900E-004  2.745954941686800E-004 
 2.813780028746400E-004  2.883280395456500E-004  2.954497421224300E-004  3.027473507528500E-004 
 3.102252103164500E-004  3.178877730112600E-004  3.257396010046400E-004  3.337853691494500E-004 
 3.420298677674500E-004  3.504780055013000E-004  3.591348122371800E-004  3.680054420994400E-004 
 3.770951765193000E-004  3.864094273793200E-004  3.959537402355900E-004  4.057337976194100E-004 
 4.157554224206100E-004  4.260245813544000E-004  4.365473885138600E-004  4.473301090101500E-004 
 4.583791627027000E-004  4.697011280214500E-004  4.813027458835800E-004  4.931909237069100E-004 
 5.053727395224700E-004  5.178554461886700E-004  5.306464757095300E-004  5.437534436595599E-004 
 5.571841537179500E-004  5.709466023147800E-004  5.850489833919600E-004  5.994996932817400E-004 
 6.143073357058000E-004  6.294807268977300E-004  6.450289008521100E-004  6.609611147031500E-004 
 6.772868542363200E-004  6.940158395359600E-004  7.111580307725000E-004  7.287236341325800E-004 
 7.467231078956500E-004  7.651671686606800E-004  7.840667977265900E-004  8.034332476304400E-004 
 8.232780488469100E-004  8.436130166534300E-004  8.644502581647699E-004  8.858021795414400E-004 
 9.076814933761100E-004  9.301012262625000E-004  9.530747265511900E-004  9.766156722970001E-004 
 1.000738079402700E-003  1.025456309964000E-003  1.050785080820100E-003  1.076739472316400E-003 
 1.103334937282600E-003  1.130587310233400E-003  1.158512816796200E-003  1.187128083371100E-003 
 1.216450147030300E-003  1.246496465662000E-003  1.277284928363800E-003  1.308833866094400E-003 
 1.341162062587000E-003  1.374288765532900E-003  1.408233698041500E-003  1.443017070383100E-003 
 1.478659592021600E-003  1.515182483944500E-003  1.552607491298000E-003  1.590956896333000E-003 
 1.630253531672500E-003  1.670520793904800E-003  1.711782657514200E-003  1.754063689154800E-003 
 1.797389062276900E-003  1.841784572115200E-003  1.887276651046400E-003  1.933892384327300E-003 
 1.981659526220200E-003  2.030606516517800E-003  2.080762497475800E-003  2.132157331163400E-003 
 2.184821617243200E-003  2.238786711189100E-003  2.294084742955500E-003  2.350748636106500E-003 
 2.408812127418300E-003  2.468309786965500E-003  2.529277038703600E-003  2.591750181559500E-003 
 2.655766411044100E-003  2.721363841396800E-003  2.788581528279400E-003  2.857459492027900E-003 
 2.928038741480900E-003  3.000361298395500E-003  3.074470222465900E-003  3.150409636960800E-003 
 3.228224754993700E-003  3.307961906442100E-003  3.389668565531200E-003  3.473393379099800E-003 
 3.559186195563600E-003  3.647098094594000E-003  3.737181417530500E-003  3.829489798543500E-003 
 3.924078196567500E-003  4.021002928022700E-003  4.120321700344900E-003  4.222093646343400E-003 
 4.326379359408100E-003  4.433240929585400E-003  4.542741980546200E-003  4.654947707465700E-003 
 4.769924915840100E-003  4.887742061261400E-003  5.008469290174500E-003  5.132178481641800E-003 
 5.258943290138400E-003  5.388839189404800E-003  5.521943517383100E-003  5.658335522262400E-003 
 5.798096409662300E-003  5.941309390981000E-003  6.088059732938200E-003  6.238434808341800E-003 
 6.392524148107800E-003  6.550419494566100E-003  6.712214856081900E-003  6.878006563027100E-003 
 7.047893325133900E-003  7.221976290264700E-003  7.400359104634200E-003  7.583147974518700E-003 
 7.770451729489300E-003  7.962381887207701E-003  8.159052719821700E-003  8.360581322001299E-003 
 8.567087680654700E-003  8.778694746366901E-003  8.995528506602200E-003  9.217718060715200E-003 
 9.445395696814900E-003  9.678696970526200E-003  9.917760785698200E-003  1.016272947710500E-002 
 1.041374889518900E-002  1.067096849290100E-002  1.093454141467500E-002  1.120462458761800E-002 
 1.148137881493200E-002  1.176496887166100E-002  1.205556360279100E-002  1.235333602378000E-002 
 1.265846342356700E-002  1.297112747012900E-002  1.329151431864100E-002  1.361981472231200E-002 
 1.395622414595300E-002  1.430094288235800E-002  1.465417617155200E-002  1.501613432299000E-002 
 1.538703284076700E-002  1.576709255193400E-002  1.615653973796700E-002  1.655560626949500E-002 
 1.696452974435100E-002  1.738355362903700E-002  1.781292740367400E-002  1.825290671054500E-002 
 1.870375350629500E-002  1.916573621790100E-002  1.963912990248300E-002  2.012421641107400E-002 
 2.062128455642800E-002  2.113063028497200E-002  2.165255685301000E-002  2.218737500728000E-002 
 2.273540316995900E-002  2.329696762825700E-002  2.387240272867500E-002  2.446205107607400E-002 
 2.506626373765300E-002  2.568540045197300E-002  2.631982984313600E-002  2.696992964026200E-002 
 2.763608690237600E-002  2.831869824886500E-002  2.901817009561200E-002  2.973491889697400E-002 
 3.046937139372900E-002  3.122196486715400E-002  3.199314739937300E-002  3.278337814013700E-002 
 3.359312758019900E-002  3.442287783143000E-002  3.527312291386600E-002  3.614436904983800E-002 
 3.703713496536900E-002  3.795195219901400E-002  3.888936541833000E-002  3.984993274416200E-002 
 4.083422608294300E-002  4.184283146719200E-002  4.287634940443200E-002  4.393539523472100E-002 
 4.502059949701900E-002  4.613260830459500E-002  4.727208372971800E-002  4.843970419784200E-002 
 4.963616489152900E-002  5.086217816435000E-002  5.211847396500900E-002  5.340580027194500E-002 
 5.472492353866200E-002  5.607662915006700E-002  5.746172189007400E-002  5.888102642075900E-002 
 6.033538777335100E-002  6.182567185135300E-002  6.335276594608200E-002  6.491757926495000E-002 
 6.652104347279400E-002  6.816411324657200E-002  6.984776684376200E-002  7.157300668480300E-002 
 7.334085994991800E-002  7.515237919068100E-002  7.700864295669101E-002  7.891075643772100E-002 
 8.085985212173299E-002  8.285709046913900E-002  8.490366060372700E-002  8.700078102063900E-002 
 8.914970031184900E-002  9.135169790955200E-002  9.360808484791799E-002  9.592020454366100E-002 
 9.828943359589000E-002  1.007171826057100E-001  1.032048970160700E-001  1.057540579723700E-001 
 1.083661832042800E-001  1.110428279294300E-001  1.137855857792900E-001  1.165960897480300E-001 
 1.194760131648100E-001  1.224270706899800E-001  1.254510193360200E-001  1.285496595136200E-001 
 1.317248361036100E-001  1.349784395553700E-001  1.383124070123900E-001  1.417287234655900E-001 
 1.452294229351900E-001  1.488165896816900E-001  1.524923594468300E-001  1.562589207251700E-001 
 1.601185160670800E-001  1.640734434139400E-001  1.681260574662600E-001  1.722787710856800E-001 
 1.765340567314900E-001  1.808944479327600E-001  1.853625407967000E-001  1.899409955543800E-001 
 1.946325381445700E-001  1.994399618367400E-001  2.043661288941100E-001  2.094139722777900E-001 
 2.145864973930600E-001  2.198867838786600E-001  2.253179874404700E-001  2.308833417302500E-001 
 2.365861602709800E-001  2.424298384296800E-001  2.484178554388900E-001  2.545537764682300E-001 
 2.608412547470000E-001  2.672840337392500E-001  2.738859493726100E-001  2.806509323221100E-001 
 2.875830103504700E-001  2.946863107061200E-001  3.019650625805600E-001  3.094235996263000E-001 
 3.170663625370700E-001  3.248979016917400E-001  3.329228798635200E-001  3.411460749961500E-001 
 3.495723830485600E-001  3.582068209098600E-001  3.670545293863300E-001  3.761207762621700E-001 
 3.854109594358500E-001  3.949306101339100E-001  4.046853962042200E-001  4.146811254904700E-001 
 4.249237492900800E-001  4.354193658975500E-001  4.461742242352200E-001  4.571947275738300E-001 
 4.684874373449000E-001  4.800590770473200E-001  4.919165362503900E-001  5.040668746957701E-001 
 5.165173265007600E-001  5.292753044653200E-001  5.423484044856201E-001  5.557444100764100E-001 
 5.694712970053000E-001  5.835372380413300E-001  5.979506078209500E-001  6.127199878341300E-001 
 6.278541715336300E-001  6.433621695705100E-001  6.592532151589000E-001  6.755367695733300E-001 
 6.922225277817901E-001  7.093204242180000E-001  7.268406386961900E-001  7.447936024719800E-001 
 7.631900044530400E-001  7.820407975630300E-001  8.013572052628400E-001  8.211507282328300E-001 
 8.414331512201800E-001  8.622165500553201E-001  8.835132988416800E-001  9.053360773230700E-001 
 9.276978784329500E-001  9.506120160302500E-001  9.740921328261900E-001  9.981522085070000E-001 
 1.022806568057100E+000  1.048069890288100E+000  1.073957216578300E+000  1.100483959827700E+000 
 1.127665913635500E+000  1.155519261702300E+000  1.184060587466300E+000  1.213306883976700E+000 
 1.243275564011000E+000  1.273984470442000E+000  1.305451886862000E+000  1.337696548467400E+000 
 1.370737653214600E+000  1.404594873249000E+000  1.439288366618200E+000  1.474838789273700E+000 
 1.511267307368800E+000  1.548595609860800E+000  1.586845921424300E+000  1.626041015683500E+000 
 1.666204228770900E+000  1.707359473221500E+000  1.749531252210100E+000  1.792744674139700E+000 
 1.837025467591000E+000  1.882399996640500E+000  1.928895276557500E+000  1.976538989888400E+000 
 2.025359502938700E+000  2.075385882661300E+000  2.126647913963000E+000  2.179176117437900E+000 
 2.233001767538600E+000  2.288156911196800E+000  2.344674386903400E+000  2.402587844259900E+000 
 2.461931764013100E+000  2.522741478584200E+000  2.585053193105300E+000  2.648904006975000E+000 
 2.714331935947200E+000  2.781375934765100E+000  2.850075920353800E+000  2.920472795586600E+000 
 2.992608473637600E+000  3.066525902936400E+000  3.142269092738900E+000  3.219883139329600E+000 
 3.299414252871000E+000  3.380909784916900E+000  3.464418256604400E+000  3.549989387542500E+000 
 3.637674125414800E+000  3.727524676312600E+000  3.819594535817500E+000  3.913938520852200E+000 
 4.010612802317200E+000  4.109674938534500E+000  4.211183909516300E+000  4.315200152081300E+000 
 4.421785595837700E+000  4.531003700054900E+000  4.642919491446300E+000  4.757599602885000E+000 
 4.875112313076300E+000  4.995527587209200E+000  5.118917118613300E+000  5.245354371443100E+000 
 5.374914624417700E+000  5.507675015640800E+000  5.643714588527100E+000  5.783114338863800E+000 
 5.925957263033700E+000  6.072328407430600E+000  6.222314919094200E+000  6.376006097595800E+000 
 6.533493448206400E+000  6.694870736377100E+000  6.860234043565600E+000  7.029681824441700E+000 
 7.203314965505400E+000  7.381236845153400E+000  7.563553395228700E+000  7.750373164090800E+000 
 7.941807381243900E+000  8.137970023560600E+000  8.338977883142499E+000  8.544950636856200E+000 
 8.756010917586501E+000  8.972284387250900E+000  9.193899811615999E+000  9.420989136962900E+000 
 9.653687568645900E+000  9.892133651591401E+000  1.013646935278600E+001  1.038684014580000E+001 
 1.064339509740100E+001  1.090628695630700E+001  1.117567224412700E+001  1.145171134855700E+001 
 1.173456861886700E+001  1.202441246375300E+001  1.232141545160700E+001  1.262575441326200E+001 
 1.293761054727000E+001  1.325716952778700E+001  1.358462161512400E+001  1.392016176901700E+001 
 1.426398976471200E+001  1.461631031190000E+001  1.497733317660400E+001  1.534727330606600E+001 
 1.572635095672600E+001  1.611479182535700E+001  1.651282718344400E+001  1.692069401487500E+001 
 1.733863515704200E+001  1.776689944542100E+001  1.820574186172300E+001  1.865542368570700E+001 
 1.911621265074400E+001  1.958838310321800E+001  2.007221616586700E+001  2.056799990516400E+001 
 2.107602950282200E+001  2.159660743154100E+001  2.213004363510000E+001  2.267665571288700E+001 
 2.323676910899600E+001  2.381071730598800E+001  2.439884202344600E+001  2.500149342142500E+001 
 2.561903030893400E+001  2.625182035756500E+001  2.690024032039700E+001  2.756467625631000E+001 
 2.824552375984100E+001  2.894318819670900E+001  2.965808494516800E+001  3.039063964331400E+001 
 3.114128844250400E+001  3.191047826703300E+001  3.269866708022900E+001  3.350632415711100E+001 
 3.433393036379200E+001  3.518197844377700E+001  3.605097331133800E+001  3.694143235212900E+001 
 3.785388573122600E+001  3.878887670878700E+001  3.974696196349400E+001  4.072871192399300E+001 
 4.173471110851500E+001  4.276555847289600E+001  4.382186776717600E+001  4.490426790102500E+001 
 4.601340331818100E+001  4.714993438014000E+001  4.831453775932900E+001  4.950790684198500E+001 
 5.073075214098200E+001  5.198380171886400E+001  5.326780162132000E+001  5.458351632136600E+001 
 5.593172917450400E+001  5.731324288511400E+001  5.872887998437700E+001  6.017948331999100E+001 
 6.166591655799500E+001  6.318906469697700E+001  6.474983459499200E+001  6.634915550948899E+001 
 6.798797965057300E+001  6.966728274794200E+001  7.138806463181700E+001  7.315134982822200E+001 
 7.495818816897901E+001  7.680965541675300E+001  7.870685390554701E+001
    </PP_R>
    <PP_RAB type="real" size="523" columns="4">
 5.648121949892353E-006  5.787630562054631E-006  5.930585036937393E-006  6.077070487349957E-006 
 6.227174128387352E-006  6.380985329358645E-006  6.538595666993819E-006  6.700098979968491E-006 
 6.865591424773556E-006  7.035171532965618E-006  7.208940269829930E-006  7.387001094494631E-006 
 7.569460021528759E-006  7.756425684060367E-006  7.948009398456703E-006  8.144325230598471E-006 
 8.345490063794464E-006  8.551623668370039E-006  8.762848772978728E-006  8.979291137671342E-006 
 9.201079628771920E-006  9.428346295602422E-006  9.661226449103820E-006  9.899858742396707E-006 
 1.014438525333392E-005  1.039495156909129E-005  1.065170687284800E-005  1.091480403260729E-005 
 1.118439969221267E-005  1.146065436461016E-005  1.174373252741604E-005  1.203380272084335E-005 
 1.233103764804816E-005  1.263561427795483E-005  1.294771395062031E-005  1.326752248520074E-005 
 1.359523029058518E-005  1.393103247876255E-005  1.427512898098810E-005  1.462772466681848E-005 
 1.498902946608891E-005  1.535925849390123E-005  1.573863217870074E-005  1.612737639351448E-005 
 1.652572259043433E-005  1.693390793841814E-005  1.735217546449711E-005  1.778077419847017E-005 
 1.821995932117226E-005  1.866999231640540E-005  1.913114112662040E-005  1.960368031244800E-005 
 2.008789121616542E-005  2.058406212920474E-005  2.109248846379610E-005  2.161347292885187E-005 
 2.214732571019443E-005  2.269436465523623E-005  2.325491546222072E-005  2.382931187413747E-005 
 2.441789587742778E-005  2.502101790560155E-005  2.563903704786964E-005  2.627232126295308E-005 
 2.692124759814766E-005  2.758620241381995E-005  2.826758161344216E-005  2.896579087929500E-005 
 2.968124591401198E-005  3.041437268808933E-005  3.116560769348388E-005  3.193539820351329E-005 
 3.272420253914172E-005  3.353249034185856E-005  3.436074285330094E-005  3.520945320177686E-005 
 3.607912669586165E-005  3.697028112524862E-005  3.788344706904399E-005  3.881916821164789E-005 
 3.977800166647743E-005  4.076051830763916E-005  4.176730310983666E-005  4.279895549664961E-005 
 4.385608969741628E-005  4.493933511294394E-005  4.604933669023254E-005  4.718675530648261E-005 
 4.835226816255311E-005  4.954656918616722E-005  5.077036944506580E-005  5.202439757035765E-005 
 5.330940019034705E-005  5.462614237504845E-005  5.597540809171286E-005  5.735800067157815E-005 
 5.877474328816538E-005  6.022647944738228E-005  6.171407348973391E-005  6.323841110492840E-005 
 6.480039985922210E-005  6.640096973574270E-005  6.804107368821796E-005  6.972168820831692E-005 
 7.144381390706017E-005  7.320847611056510E-005  7.501672547049680E-005  7.686963858961788E-005 
 7.876831866278068E-005  8.071389613375272E-005  8.270752936825593E-005  8.475040534365134E-005 
 8.684374035564038E-005  8.898878074242418E-005  9.118680362676276E-005  9.343911767634371E-005 
 9.574706388294881E-005  9.811201636085721E-005  1.005353831649713E-004  1.030186071291457E-004 
 1.055631667252360E-004  1.081705769433474E-004  1.108423901938491E-004  1.135801972316374E-004 
 1.163856281032587E-004  1.192603531174104E-004  1.222060838394091E-004  1.252245741102422E-004 
 1.283176210907664E-004  1.314870663317079E-004  1.347347968701011E-004  1.380627463527910E-004 
 1.414728961877054E-004  1.449672767235428E-004  1.485479684586136E-004  1.522171032795419E-004 
 1.559768657305456E-004  1.598294943140910E-004  1.637772828236494E-004  1.678225817093930E-004 
 1.719677994776158E-004  1.762154041247127E-004  1.805679246065922E-004  1.850279523443759E-004 
 1.895981427672817E-004  1.942812168936339E-004  1.990799629509059E-004  2.039972380357933E-004 
 2.090359698152767E-004  2.141991582697147E-004  2.194898774789776E-004  2.249112774527065E-004 
 2.304665860057892E-004  2.361591106801315E-004  2.419922407139308E-004  2.479694490595663E-004 
 2.540942944513255E-004  2.603704235242935E-004  2.668015729853276E-004  2.733915718380781E-004 
 2.801443436624746E-004  2.870639089509421E-004  2.941543875020297E-004  3.014200008733314E-004 
 3.088650748948937E-004  3.164940422447951E-004  3.243114450882369E-004  3.323219377819302E-004 
 3.405302896451413E-004  3.489413877993753E-004  3.575602400780140E-004  3.663919780079572E-004 
 3.754418598647329E-004  3.847152738033931E-004  3.942177410663426E-004  4.039549192706865E-004 
 4.139326057766596E-004  4.241567411393560E-004  4.346334126454929E-004  4.453688579378428E-004 
 4.563694687288962E-004  4.676417946065124E-004  4.791925469332895E-004  4.910286028425338E-004 
 5.031570093327559E-004  5.155849874632804E-004  5.283199366536038E-004  5.413694390889637E-004 
 5.547412642344412E-004  5.684433734610322E-004  5.824839247855210E-004  5.968712777277411E-004 
 6.116139982876157E-004  6.267208640453191E-004  6.422008693872205E-004  6.580632308610981E-004 
 6.743173926633557E-004  6.909730322621482E-004  7.080400661590242E-004  7.255286557931614E-004 
 7.434492135912461E-004  7.618124091669473E-004  7.806291756733782E-004  7.999107163124982E-004 
 8.196685110054318E-004  8.399143232272681E-004  8.606602070109738E-004  8.819185141241328E-004 
 9.037019014229990E-004  9.260233383881564E-004  9.488961148463526E-004  9.723338488830392E-004 
 9.963504949504550E-004  1.020960352175739E-003  1.046178072874488E-003  1.072018671274477E-003 
 1.098497532454966E-003  1.125630421506594E-003  1.153433492917795E-003  1.181923300192864E-003 
 1.211116805707635E-003  1.241031390808619E-003  1.271684866161581E-003  1.303095482355779E-003 
 1.335281940769966E-003  1.368263404706985E-003  1.402059510803256E-003  1.436690380720101E-003 
 1.472176633123869E-003  1.508539395962034E-003  1.545800319042311E-003  1.583981586922650E-003 
 1.623105932119633E-003  1.663196648642988E-003  1.704277605864462E-003  1.746373262729316E-003 
 1.789508682318739E-003  1.833709546772012E-003  1.879002172577286E-003  1.925413526239938E-003 
 1.972971240338072E-003  2.021703629974402E-003  2.071639709634776E-003  2.122809210462754E-003 
 2.175242597961189E-003  2.228971090130839E-003  2.284026676057072E-003  2.340442134955668E-003 
 2.398251055689087E-003  2.457487856764644E-003  2.518187806826706E-003  2.580387045655400E-003 
 2.644122605682904E-003  2.709432434043377E-003  2.776355415164323E-003  2.844931393918676E-003 
 2.915201199348556E-003  2.987206668972446E-003  3.060990673696004E-003  3.136597143336303E-003 
 3.214071092776797E-003  3.293458648768404E-003  3.374807077393042E-003  3.458164812204503E-003 
 3.543581483065952E-003  3.631107945697701E-003  3.720796311956489E-003  3.812699980861894E-003 
 3.906873670389142E-003  4.003373450047830E-003  4.102256774263906E-003  4.203582516588307E-003 
 4.307411004747884E-003  4.413804056565210E-003  4.522825016762392E-003  4.634538794676459E-003 
 4.749011902904890E-003  4.866312496906620E-003  4.986510415580275E-003  5.109677222844997E-003 
 5.235886250249478E-003  5.365212640630431E-003  5.497733392854176E-003  5.633527407657683E-003 
 5.772675534626653E-003  5.915260620332098E-003  6.061367557654225E-003  6.211083336328270E-003 
 6.364497094735693E-003  6.521700172975643E-003  6.682786167248154E-003  6.847850985579099E-003 
 7.016992904922997E-003  7.190312629674434E-003  7.367913351627364E-003  7.549900811412565E-003 
 7.736383361454464E-003  7.927472030482496E-003  8.123280589635268E-003  8.323925620199285E-003 
 8.529526583018331E-003  8.740205889618899E-003  8.956088975092398E-003  9.177304372777122E-003 
 9.403983790784826E-003  9.636262190417078E-003  9.874277866520438E-003  1.011817252982363E-002 
 1.036809139131016E-002  1.062418324867565E-002  1.088660057491795E-002  1.115549960911842E-002 
 1.143104044946356E-002  1.171338714856533E-002  1.200270781113493E-002  1.229917469406985E-002 
 1.260296430901348E-002  1.291425752744590E-002  1.323323968837398E-002  1.356010070867669E-002 
 1.389503519618107E-002  1.423824256552672E-002  1.458992715689521E-002  1.495029835767059E-002 
 1.531957072710498E-002  1.569796412406445E-002  1.608570383792881E-002  1.648302072272578E-002 
 1.689015133457707E-002  1.730733807254112E-002  1.773482932293302E-002  1.817287960720932E-002 
 1.862174973350744E-002  1.908170695192507E-002  1.955302511363770E-002  2.003598483394450E-002 
 2.053087365934290E-002  2.103798623872872E-002  2.155762449882516E-002  2.209009782394615E-002 
 2.263572324019763E-002  2.319482560423065E-002  2.376773779665498E-002  2.435480092023243E-002 
 2.495636450296161E-002  2.557278670618451E-002  2.620443453782932E-002  2.685168407091165E-002 
 2.751492066746453E-002  2.819453920795098E-002  2.889094432638623E-002  2.960455065124754E-002 
 3.033578305233520E-002  3.108507689372612E-002  3.185287829300318E-002  3.263964438683812E-002 
 3.344584360319437E-002  3.427195594019326E-002  3.511847325191481E-002  3.598589954123785E-002 
 3.687475125990738E-002  3.778555761602687E-002  3.871886088914123E-002  3.967521675310350E-002 
 4.065519460690558E-002  4.165937791369514E-002  4.268836454816412E-002  4.374276715250403E-002 
 4.482321350117208E-002  4.593034687465109E-002  4.706482644245448E-002  4.822732765558139E-002 
 4.941854264867563E-002  5.063918065209826E-002  5.188996841420426E-002  5.317165063403544E-002 
 5.448499040469573E-002  5.583076966769163E-002  5.720978967848456E-002  5.862287148354278E-002 
 6.007085640918582E-002  6.155460656249213E-002  6.307500534458740E-002  6.463295797659868E-002 
 6.622939203861866E-002  6.786525802197264E-002  6.954152989511542E-002  7.125920568352626E-002 
 7.301930806390963E-002  7.482288497308701E-002  7.667101023192155E-002  7.856478418465121E-002 
 8.050533435401110E-002  8.249381611255482E-002  8.453141337053623E-002  8.661933928078776E-002 
 8.875883696102323E-002  9.095118023396183E-002  9.319767438574017E-002  9.549965694306814E-002 
 9.785849846956073E-002  1.002756033817604E-001  1.027524107852899E-001  1.052903953316853E-001 
 1.078910680963777E-001  1.105559774783584E-001  1.132867101220749E-001  1.160848918620896E-001 
 1.189521886910842E-001  1.218903077517520E-001  1.249009983532210E-001  1.279860530125468E-001 
 1.311473085219557E-001  1.343866470424475E-001  1.377059972243953E-001  1.411073353558399E-001 
 1.445926865391282E-001  1.481641258966439E-001  1.518237798062926E-001  1.555738271675073E-001 
 1.594165006985444E-001  1.633540882657985E-001  1.673889342459634E-001  1.715234409218394E-001 
 1.757600699126086E-001  1.801013436394504E-001  1.845498468273451E-001  1.891082280439793E-001 
 1.937792012766670E-001  1.985655475482001E-001  2.034701165726395E-001  2.084958284519856E-001 
 2.136456754147485E-001  2.189227235974931E-001  2.243301148703513E-001  2.298710687076486E-001 
 2.355488841047279E-001  2.413669415421134E-001  2.473287049982107E-001  2.534377240116711E-001 
 2.596976357947530E-001  2.661121673988881E-001  2.726851379336216E-001  2.794204608405835E-001 
 2.863221462233616E-001  2.933943032350783E-001  3.006411425249677E-001  3.080669787453419E-001 
 3.156762331203622E-001  3.234734360784213E-001  3.314632299495745E-001  3.396503717293152E-001 
 3.480397359110362E-001  3.566363173880293E-001  3.654452344275154E-001  3.744717317178721E-001 
 3.837211834913077E-001  3.931990967235397E-001  4.029111144126278E-001  4.128630189386181E-001 
 4.230607355063919E-001  4.335103356734013E-001  4.442180409645368E-001  4.551902265763472E-001 
 4.664334251727839E-001  4.779543307745669E-001  4.897598027446869E-001  5.018568698724827E-001 
 5.142527345583440E-001  5.269547771019178E-001  5.399705600963338E-001  5.533078329307139E-001 
 5.669745364041194E-001  5.809788074532962E-001  5.953289839973951E-001  6.100336099021278E-001 
 6.251014400667056E-001  6.405414456363613E-001  6.563628193435830E-001  6.725749809813498E-001 
 6.891875830115926E-001  7.062105163119772E-001  7.236539160648900E-001  7.415281677917014E-001 
 7.598439135361599E-001  7.786120582004823E-001  7.978437760380412E-001  8.175505173061893E-001 
 8.377440150836608E-001  8.584362922562111E-001  8.796396686749324E-001  9.013667684912264E-001 
 9.236305276729454E-001  9.464442017064603E-001  9.698213734886090E-001  9.937759614137947E-001 
 1.018322227660700E+000  1.043474786683936E+000  1.069248613915016E+000  1.095659054678711E+000 
 1.122721833329292E+000  1.150453062612524E+000  1.178869253259042E+000  1.207987323814554E+000 
 1.237824610712773E+000  1.268398878597372E+000  1.299728330898729E+000  1.331831620671913E+000 
 1.364727861702515E+000  1.398436639886561E+000  1.432978024891776E+000  1.468372582106600E+000 
 1.504641384884638E+000  1.541806027091277E+000  1.579888635960424E+000  1.618911885268663E+000 
 1.658899008834790E+000  1.699873814353006E+000  1.741860697567545E+000  1.784884656797442E+000 
 1.828971307820337E+000  1.874146899123505E+000  1.920438327531860E+000
    </PP_RAB>
  </PP_MESH>
  <PP_LOCAL type="real" size="523" columns="4">
-1.462021220766400E+001 -1.462021227556860E+001 -1.462021234180920E+001 -1.462021240642460E+001 
-1.462021246945240E+001 -1.462021253092960E+001 -1.462021259089180E+001 -1.462021264937400E+001 
-1.462021270641020E+001 -1.462021276203320E+001 -1.462021281627520E+001 -1.462021286916780E+001 
-1.462021292074100E+001 -1.462021297102440E+001 -1.462021302004720E+001 -1.462021306783680E+001 
-1.462021311442080E+001 -1.462021315982520E+001 -1.462021320407580E+001 -1.462021324719740E+001 
-1.462021328921420E+001 -1.462021333014940E+001 -1.462021337002560E+001 -1.462021340886480E+001 
-1.462021344668800E+001 -1.462021348351600E+001 -1.462021351936840E+001 -1.462021355426440E+001 
-1.462021358822240E+001 -1.462021362126000E+001 -1.462021365339460E+001 -1.462021368464220E+001 
-1.462021371501880E+001 -1.462021374453960E+001 -1.462021377321860E+001 -1.462021380107000E+001 
-1.462021382810640E+001 -1.462021385434080E+001 -1.462021387978440E+001 -1.462021390444880E+001 
-1.462021392834400E+001 -1.462021395148000E+001 -1.462021397386600E+001 -1.462021399551000E+001 
-1.462021401642000E+001 -1.462021403660280E+001 -1.462021405606480E+001 -1.462021407481140E+001 
-1.462021409284760E+001 -1.462021411017720E+001 -1.462021412680380E+001 -1.462021414272980E+001 
-1.462021415795700E+001 -1.462021417248620E+001 -1.462021418631740E+001 -1.462021419944980E+001 
-1.462021421188180E+001 -1.462021422361100E+001 -1.462021423463340E+001 -1.462021424494500E+001 
-1.462021425453980E+001 -1.462021426341160E+001 -1.462021427155260E+001 -1.462021427895420E+001 
-1.462021428560640E+001 -1.462021429149800E+001 -1.462021429661680E+001 -1.462021430094920E+001 
-1.462021430448000E+001 -1.462021430719260E+001 -1.462021430906940E+001 -1.462021431009060E+001 
-1.462021431023540E+001 -1.462021430948060E+001 -1.462021430780200E+001 -1.462021430517280E+001 
-1.462021430156460E+001 -1.462021429694680E+001 -1.462021429128700E+001 -1.462021428455000E+001 
-1.462021427669840E+001 -1.462021426769240E+001 -1.462021425748920E+001 -1.462021424604340E+001 
-1.462021423330640E+001 -1.462021421922700E+001 -1.462021420375000E+001 -1.462021418681720E+001 
-1.462021416836600E+001 -1.462021414833040E+001 -1.462021412664000E+001 -1.462021410322000E+001 