<UPF version="2.0.1">
  <PP_INFO>
    Generated using FHI98PP, converted with fhi2upf.x v.5.0.1
    Author: Abinit web site
    Generation date: 10-Jul-2012, PG
    Pseudopotential type: SL
    Element: Cr
    Functional: SLA-PW

    Suggested minimum cutoff for wavefunctions:   0. Ry
    Suggested minimum cutoff for charge density:   0. Ry
    The Pseudo was generated with a Non-Relativistic Calculation
    L component and cutoff radius for Local Potential:  1   0.0000

    Valence configuration: 
    nl pn  l   occ       Rcut    Rcut US       E pseu
    4s  4  0  2.00      0.000      0.000     0.000000
    4p  4  1  0.00      0.000      0.000     0.000000
    3d  3  2  4.00      0.000      0.000     0.000000
    4f  4  3  0.00      0.000      0.000     0.000000

    Generation configuration: not available.
    Comment:
    chromium, fhi98PP : Trouiller-Martins-type, LDA Ceperley/Alder Perdew/Wang (1992
  </PP_INFO>
  <!--                               -->
  <!-- END OF HUMAN READABLE SECTION -->
  <!--                               -->
  <PP_HEADER generated="Generated using FHI98PP, converted with fhi2upf.x v.5.0.1"
             author="Abinit web site"
             date="10-Jul-2012, PG"
             comment="chromium, fhi98PP : Trouiller-Martins-type, LDA Ceperley/Alder Perdew/Wang (1992"
             element="Cr"
             pseudo_type="SL"
             relativistic="no"
             is_ultrasoft="F"
             is_paw="F"
             is_coulomb="F"
             has_so="F"
             has_wfc="F"
             has_gipaw="F"
             paw_as_gipaw="F"
             core_correction="F"
             functional="SLA-PW"
             z_valence="6.000000000000000E+000"
             total_psenergy="0.000000000000000E+000"
             wfc_cutoff="0.000000000000000E+000"
             rho_cutoff="0.000000000000000E+000"
             l_max="3"
             l_max_rho="0"
             l_local="1"
             mesh_size="517"
             number_of_wfc="4"
             number_of_proj="3"/>
  <PP_MESH dx="2.439988682353512E-002" mesh="517" xmin="-5.075173815233814E+000" rmax="7.648647710689499E+001"
zmesh="2.400000000000000E+001">
    <PP_R type="real" size="517" columns="4">
 2.604166666666700E-004  2.668489583333300E-004  2.734401276041700E-004  2.801940987559900E-004 
 2.871148929952600E-004  2.942066308522500E-004  3.014735346343000E-004  3.089199309397600E-004 
 3.165502532339800E-004  3.243690444888500E-004  3.323809598877300E-004  3.405907695969600E-004 
 3.490033616060000E-004  3.576237446376700E-004  3.664570511302200E-004  3.755085402931400E-004 
 3.847836012383800E-004  3.942877561889600E-004  4.040266637668300E-004  4.140061223618700E-004 
 4.242320735842100E-004  4.347106058017400E-004  4.454479577650400E-004  4.564505223218400E-004 
 4.677248502231900E-004  4.792776540237000E-004  4.911158120780900E-004  5.032463726364200E-004 
 5.156765580405400E-004  5.284137690241400E-004  5.414655891190300E-004  5.548397891702700E-004 
 5.685443319627800E-004  5.825873769622600E-004  5.969772851732300E-004  6.117226241170100E-004 
 6.268321729327000E-004  6.423149276041300E-004  6.581801063159600E-004  6.744371549419600E-004 
 6.910957526690300E-004  7.081658177599500E-004  7.256575134586200E-004  7.435812540410500E-004 
 7.619477110158600E-004  7.807678194779500E-004  8.000527846190600E-004  8.198140883991500E-004 
 8.400634963826100E-004  8.608130647432600E-004  8.820751474424200E-004  9.038624035842500E-004 
 9.261878049527800E-004  9.490646437351100E-004  9.725065404353700E-004  9.965274519841199E-004 
 1.021141680048100E-003  1.046363879545300E-003  1.072209067370100E-003  1.098692631334100E-003 
 1.125830339328100E-003  1.153638348709500E-003  1.182133215922600E-003  1.211331906355900E-003 
 1.241251804442900E-003  1.271910724012600E-003  1.303326918895700E-003  1.335519093792500E-003 
 1.368506415409100E-003  1.402308523869700E-003  1.436945544409300E-003  1.472438099356200E-003 
 1.508807320410300E-003  1.546074861224500E-003  1.584262910296700E-003  1.623394204181000E-003 
 1.663492041024300E-003  1.704580294437600E-003  1.746683427710200E-003  1.789826508374700E-003 
 1.834035223131500E-003  1.879335893142900E-003  1.925755489703500E-003  1.973321650299200E-003 
 2.022062695061600E-003  2.072007643629600E-003  2.123186232427200E-003  2.175628932368200E-003 
 2.229366966997700E-003  2.284432331082500E-003  2.340857809660300E-003  2.398676997558900E-003 
 2.457924319398600E-003  2.518635050087700E-003  2.580845335824900E-003  2.644592215619800E-003 
 2.709913643345600E-003  2.776848510336200E-003  2.845436668541500E-003  2.915718954254500E-003 
 2.987737212424600E-003  3.061534321571500E-003  3.137154219314300E-003  3.214641928531300E-003 
 3.294043584166100E-003  3.375406460695000E-003  3.458779000274100E-003  3.544210841580900E-003 
 3.631752849367900E-003  3.721457144747300E-003  3.813377136222600E-003  3.907567551487300E-003 
 4.004084470009000E-003  4.102985356418200E-003  4.204329094721800E-003  4.308176023361400E-003 
 4.414587971138400E-003  4.523628294025500E-003  4.635361912888000E-003  4.749855352136300E-003 
 4.867176779334100E-003  4.987396045783600E-003  5.110584728114500E-003  5.236816170898900E-003 
 5.366165530320100E-003  5.498709818919000E-003  5.634527951446300E-003  5.773700791847000E-003 
 5.916311201405700E-003  6.062444088080400E-003  6.212186457056000E-003  6.365627462545300E-003 
 6.522858460870100E-003  6.683973064853600E-003  6.849067199555500E-003  7.018239159384500E-003 
 7.191589666621300E-003  7.369221931386900E-003  7.551241713092100E-003  7.737757383405500E-003 
 7.928879990775600E-003  8.124723326547800E-003  8.325403992713500E-003  8.531041471333500E-003 
 8.741758195675501E-003  8.957679623108601E-003  9.178934309799399E-003  9.405653987251499E-003 
 9.637973640736600E-003  9.876031589662800E-003  1.011996956992700E-002  1.036993281830500E-002 
 1.062607015891700E-002  1.088853409184200E-002  1.115748088391100E-002  1.143307066174300E-002 
 1.171546750708800E-002  1.200483955451300E-002  1.230135909151000E-002  1.260520266107000E-002 
 1.291655116679800E-002  1.323558998061800E-002  1.356250905314000E-002  1.389750302675200E-002 
 1.424077135151300E-002  1.459251840389500E-002  1.495295360847200E-002  1.532229156260100E-002 
 1.570075216419700E-002  1.608856074265300E-002  1.648594819299600E-002  1.689315111336300E-002 
 1.731041194586300E-002  1.773797912092600E-002  1.817610720521300E-002  1.862505705318200E-002 
 1.908509596239500E-002  1.955649783266600E-002  2.003954332913300E-002  2.053452004936300E-002 
 2.104172269458200E-002  2.156145324513800E-002  2.209402114029300E-002  2.263974346245900E-002 
 2.319894512598100E-002  2.377195907059300E-002  2.435912645963700E-002  2.496079688319000E-002 
 2.557732856620400E-002  2.620908858179000E-002  2.685645306976000E-002  2.751980746058300E-002 
 2.819954670485900E-002  2.889607550846900E-002  2.960980857352900E-002  3.034117084529500E-002 
 3.109059776517400E-002  3.185853552997300E-002  3.264544135756400E-002  3.345178375909500E-002 
 3.427804281794500E-002  3.512471047554800E-002  3.599229082429400E-002  3.688130040765400E-002 
 3.779226852772400E-002  3.872573756035800E-002  3.968226327809900E-002  4.066241518106800E-002 
 4.166677683604100E-002  4.269594622389100E-002  4.375053609562100E-002  4.483117433718300E-002 
 4.593850434331100E-002  4.707318540059100E-002  4.823589307998600E-002  4.942731963906100E-002 
 5.064817443414600E-002  5.189918434266900E-002  5.318109419593300E-002  5.449466722257300E-002 
 5.584068550297000E-002  5.721995043489400E-002  5.863328321063600E-002  6.008152530593800E-002 
 6.156553898099500E-002  6.308620779382600E-002  6.464443712633300E-002  6.624115472335300E-002 
 6.787731124502000E-002  6.955388083277200E-002  7.127186168934201E-002  7.303227667306900E-002 
 7.483617390689300E-002  7.668462740239400E-002  7.857873769923300E-002  8.051963252040401E-002 
 8.250846744365800E-002  8.454642658951600E-002  8.663472332627700E-002  8.877460099243600E-002 
 9.096733363694900E-002  9.321422677778200E-002  9.551661817919301E-002  9.787587864821901E-002 
 1.002934128508300E-001  1.027706601482500E-001  1.053090954539100E-001  1.079102301116200E-001 
 1.105756127953800E-001  1.133068304314200E-001  1.161055091430800E-001  1.189733152189100E-001 
 1.219119561048200E-001  1.249231814206100E-001  1.280087840017000E-001  1.311706009665400E-001 
 1.344105148104100E-001  1.377304545262300E-001  1.411323967530300E-001  1.446183669528300E-001 
 1.481904406165600E-001  1.518507444997900E-001  1.556014578889400E-001  1.594448138987900E-001 
 1.633831008020900E-001  1.674186633919000E-001  1.715539043776800E-001  1.757912858158100E-001 
 1.801333305754600E-001  1.845826238406800E-001  1.891418146495400E-001  1.938136174713900E-001 
 1.986008138229300E-001  2.035062539243600E-001  2.085328583962900E-001  2.136836199986800E-001 
 2.189616054126400E-001  2.243699570663400E-001  2.299118950058700E-001  2.355907188125200E-001 
 2.414098095671900E-001  2.473726318635000E-001  2.534827358705300E-001  2.597437594465300E-001 
 2.661594303048600E-001  2.727335682333900E-001  2.794700873687500E-001  2.863729985267600E-001 
 2.934464115903700E-001  3.006945379566500E-001  3.081216930441800E-001  3.157322988623700E-001 
 3.235308866442700E-001  3.315220995443900E-001  3.397106954031300E-001  3.481015495795900E-001 
 3.566996578542100E-001  3.655101394032100E-001  3.745382398464700E-001  3.837893343706700E-001 
 3.932689309296300E-001  4.029826735235900E-001  4.129363455596200E-001  4.231358732949500E-001 
 4.335873293653300E-001  4.442969364006500E-001  4.552710707297500E-001  4.665162661767800E-001 
 4.780392179513400E-001  4.898467866347400E-001  5.019460022646201E-001  5.143440685205500E-001 
 5.270483670130101E-001  5.400664616782300E-001  5.534061032816900E-001  5.670752340327400E-001 
 5.810819923133500E-001  5.954347175234900E-001  6.101419550463200E-001  6.252124613359700E-001 
 6.406552091309600E-001  6.564793927965000E-001  6.726944337985700E-001  6.893099863134000E-001 
 7.063359429753400E-001  7.237824407668300E-001  7.416598670537700E-001  7.599788657700000E-001 
 7.787503437545200E-001  7.979854772452500E-001  8.176957185332100E-001  8.378928027809800E-001 
 8.585887550096700E-001  8.797958972584100E-001  9.015268559206900E-001  9.237945692619300E-001 
 9.466122951227000E-001  9.699936188122300E-001  9.939524611969000E-001  1.018503086988500E+000 
 1.043660113237100E+000  1.069438518034000E+000  1.095853649429500E+000  1.122921234570400E+000 
 1.150657389064300E+000  1.179078626574200E+000  1.208201868650500E+000  1.238044454806200E+000 
 1.268624152839900E+000  1.299959169415100E+000  1.332068160899600E+000  1.364970244473800E+000 
 1.398685009512300E+000  1.433232529247300E+000  1.468633372719700E+000  1.504908617025900E+000 
 1.542079859866400E+000  1.580169232405100E+000  1.619199412445500E+000  1.659193637932900E+000 
 1.700175720789900E+000  1.742170061093400E+000  1.785201661602400E+000  1.829296142644000E+000 
 1.874479757367300E+000  1.920779407374200E+000  1.968222658736400E+000  2.016837758407200E+000 
 2.066653651039800E+000  2.117699996220500E+000  2.170007186127200E+000  2.223606363624500E+000 
 2.278529440806000E+000  2.334809117993900E+000  2.392478903208400E+000  2.451573132117600E+000 
 2.512126988480900E+000  2.574176525096400E+000  2.637758685266300E+000  2.702911324792400E+000 
 2.769673234514800E+000  2.838084163407300E+000  2.908184842243400E+000  2.980017007846800E+000 
 3.053623427940700E+000  3.129047926610800E+000  3.206335410398100E+000  3.285531895034900E+000 
 3.366684532842300E+000  3.449841640803500E+000  3.535052729331300E+000  3.622368531745800E+000 
 3.711841034479900E+000  3.803523508031600E+000  3.897470538680000E+000  3.993738060985400E+000 
 4.092383391091700E+000  4.193465260851700E+000  4.297043852794700E+000  4.403180835958700E+000 
 4.511939402606900E+000  4.623384305851300E+000  4.737581898205800E+000  4.854600171091500E+000 
 4.974508795317500E+000  5.097379162561800E+000  5.223284427877100E+000  5.352299553245600E+000 
 5.484501352210800E+000  5.619968535610400E+000  5.758781758440000E+000  5.901023667873500E+000 
 6.046778952469900E+000  6.196134392595900E+000  6.349178912093100E+000  6.506003631221800E+000 
 6.666701920912900E+000  6.831369458359500E+000  7.000104283981000E+000  7.173006859795300E+000 
 7.350180129232200E+000  7.531729578424300E+000  7.717763299011300E+000  7.908392052496900E+000 
 8.103729336193600E+000  8.303891450797600E+000  8.508997569632299E+000  8.719169809602199E+000 
 8.934533303899400E+000  9.155216276505699E+000  9.381350118535400E+000  9.613069466463200E+000 
 9.850512282284800E+000  1.009381993565700E+001  1.034313728806800E+001  1.059861277908300E+001 
 1.086039851472700E+001  1.112865035804000E+001  1.140352802188400E+001  1.168519516402500E+001 
 1.197381948457600E+001  1.226957282584500E+001  1.257263127464300E+001  1.288317526712700E+001 
 1.320138969622500E+001  1.352746402172200E+001  1.386159238305800E+001  1.420397371492000E+001 
 1.455481186567800E+001  1.491431571876100E+001  1.528269931701400E+001  1.566018199014400E+001 
 1.604698848530100E+001  1.644334910088800E+001  1.684949982368000E+001  1.726568246932500E+001 
 1.769214482631700E+001  1.812914080352700E+001  1.857693058137400E+001  1.903578076673400E+001 
 1.950596455167200E+001  1.998776187609900E+001  2.048145959443800E+001  2.098735164642100E+001 
 2.150573923208700E+001  2.203693099112000E+001  2.258124318660100E+001  2.313899989331000E+001 
 2.371053319067400E+001  2.429618336048400E+001  2.489629908948800E+001  2.551123767699800E+001 
 2.614136524762000E+001  2.678705696923700E+001  2.744869727637700E+001  2.812668009910300E+001 
 2.882140909755100E+001  2.953329790226100E+001  3.026277036044600E+001  3.101026078834900E+001 
 3.177621422982200E+001  3.256108672129800E+001  3.336534556331400E+001  3.418946959872800E+001 
 3.503394949781700E+001  3.589928805041300E+001  3.678600046525800E+001  3.769461467675000E+001 
 3.862567165926600E+001  3.957972574924900E+001  4.055734497525600E+001  4.155911139614500E+001 
 4.258562144762900E+001  4.363748629738600E+001  4.471533220893100E+001  4.581980091449200E+001 
 4.695154999708000E+001  4.811125328200800E+001  4.929960123807300E+001  5.051730138865400E+001 
 5.176507873295400E+001  5.304367617765700E+001  5.435385497924600E+001  5.569639519723300E+001 
 5.707209615860500E+001  5.848177693372200E+001  5.992627682398500E+001  6.140645586153800E+001 
 6.292319532131700E+001  6.447739824575400E+001  6.606998998242400E+001  6.770191873499000E+001 
 6.937415612774400E+001  7.108769778410000E+001  7.284356391936700E+001  7.464279994817500E+001 
 7.648647710689499E+001
    </PP_R>
    <PP_RAB type="real" size="517" columns="4">
 6.354137193629020E-006  6.511084382311491E-006  6.671908166554750E-006  6.836704298268578E-006 
 7.005570894435740E-006  7.178608495528476E-006  7.355920125368016E-006  7.537611352464430E-006 
 7.723790352870493E-006  7.914567974586168E-006  8.110057803558579E-006  8.310376231306550E-006 
 8.515642524219702E-006  8.725978894567973E-006  8.941510573263791E-006  9.162365884423494E-006 
 9.388676321768741E-006  9.620576626916233E-006  9.858204869601130E-006  1.010170252988026E-005 
 1.035121458236835E-005  1.060688958255285E-005  1.086887975524183E-005  1.113734108519639E-005 
 1.141243341000075E-005  1.169432051522770E-005  1.198317023195394E-005  1.227915453668323E-005 
 1.258244965373931E-005  1.289323616018664E-005  1.321169909334310E-005  1.353802806094868E-005 
 1.387241735405421E-005  1.421506606269934E-005  1.456617819444806E-005  1.492596279585096E-005 
 1.529463407690847E-005  1.567241153860793E-005  1.605952010361174E-005  1.645619025017084E-005 
 1.686265814935015E-005  1.727916580563898E-005  1.770596120103824E-005  1.814329844270394E-005 
 1.859143791423863E-005  1.905064643072028E-005  1.952119739755919E-005  2.000337097327887E-005 
 2.049745423631889E-005  2.100374135595596E-005  2.152253376744810E-005  2.205414035150412E-005 
 2.259887761818625E-005  2.315706989535536E-005  2.372904952177071E-005  2.431515704495836E-005 
 2.491574142396815E-005  2.553116023714045E-005  2.616177989499858E-005  2.680797585840404E-005 
 2.747013286210778E-005  2.814864514380175E-005  2.884391667885305E-005  2.955636142082101E-005 
 3.028640354791551E-005  3.103447771554806E-005  3.180102931512182E-005  3.258651473920719E-005 
 3.339140165326378E-005  3.421616927409927E-005  3.506130865516998E-005  3.592732297895244E-005 
 3.681472785653262E-005  3.772405163459057E-005  3.865583570996385E-005  3.961063485199927E-005 
 4.058901753284436E-005  4.159156626590561E-005  4.261887795267327E-005  4.367156423810572E-005 
 4.475025187478558E-005  4.585558309609405E-005  4.698821599856686E-005  4.814882493373203E-005 
 4.933810090959545E-005  5.055675200206193E-005  5.180550377651161E-005  5.308509971979263E-005 
 5.439630168287164E-005  5.573989033443751E-005  5.711666562569965E-005  5.852744726665418E-005 
 5.997307521414043E-005  6.145441017192859E-005  6.297233410317605E-005  6.452775075552512E-005 
 6.612158619918636E-005  6.775478937830537E-005  6.942833267594942E-005  7.114321249304598E-005 
 7.290044984162455E-005  7.470109095271299E-005  7.654620789924460E-005  7.843689923435440E-005 
 8.037429064544483E-005  8.235953562438725E-005  8.439381615430800E-005  8.647834341332013E-005 
 8.861435849562796E-005  9.080313315047028E-005  9.304597053928792E-005  9.534420601160837E-005 
 9.769920790009421E-005  1.001123783352260E-004  1.025851540801078E-004  1.051190073858858E-004 
 1.077154468683165E-004  1.103760184059635E-004  1.131023060605925E-004  1.158959330202883E-004 
 1.187585625658902E-004  1.216918990612664E-004  1.246976889680808E-004  1.277777218855917E-004 
 1.309338316161658E-004  1.341678972570849E-004  1.374818443193349E-004  1.408776458740219E-004 
 1.443573237271122E-004  1.479229496231713E-004  1.515766464788640E-004  1.553205896468924E-004 
 1.591570082111689E-004  1.630881863139850E-004  1.671164645159408E-004  1.712442411894841E-004 
 1.754739739468644E-004  1.798081811033533E-004  1.842494431766047E-004  1.888004044230674E-004 
 1.934637744123169E-004  1.982423296403021E-004  2.031389151824168E-004  2.081564463874219E-004 
 2.132979106131928E-004  2.185663690053366E-004  2.239649583197688E-004  2.294968927902684E-004 
 2.351654660421878E-004  2.409740530534300E-004  2.469261121638382E-004  2.530251871343046E-004 
 2.592749092565187E-004  2.656789995151485E-004  2.722412708031850E-004  2.789656301920090E-004 
 2.858560812577503E-004  2.929167264648150E-004  3.001517696085088E-004  3.075655183178317E-004 
 3.151623866202717E-004  3.229468975697946E-004  3.309236859397865E-004  3.390975009824856E-004 
 3.474732092567585E-004  3.560557975253914E-004  3.648503757242879E-004  3.738621800046715E-004 
 3.830965758507809E-004  3.925590612743033E-004  4.022552700877658E-004  4.121909752589336E-004 
 4.223720923478276E-004  4.328046830288234E-004  4.434949586996385E-004  4.544492841795254E-004 
 4.656741814987451E-004  4.771763337817603E-004  4.889625892261734E-004  5.010399651800701E-004 
 5.134156523200112E-004  5.260970189323113E-004  5.390916152999416E-004  5.524071781978688E-004 
 5.660516354993381E-004  5.800331108961783E-004  5.943599287353226E-004  6.090406189750842E-004 
 6.240839222637494E-004  6.394987951436826E-004  6.552944153837264E-004  6.714801874437026E-004 
 6.880657480735524E-004  7.050609720509687E-004  7.224759780606475E-004  7.403211347187414E-004 
 7.586070667462996E-004  7.773446612949138E-004  7.965450744289144E-004  8.162197377672883E-004 
 8.363803652901489E-004  8.570389603128097E-004  8.782078226325351E-004  8.998995558515573E-004 
 9.221270748811139E-004  9.449036136306583E-004  9.682427328873394E-004  9.921583283896557E-004 
 1.016664639100895E-003  1.041776255686682E-003  1.067508129202141E-003  1.093875579993437E-003 
 1.120894306819265E-003  1.148580396197706E-003  1.176950331983799E-003  1.206021005183783E-003 
 1.235809724011827E-003  1.266334224194910E-003  1.297612679532526E-003  1.329663712716990E-003 
 1.362506406421086E-003  1.396160314659703E-003  1.430645474431800E-003  1.465982417650249E-003 
 1.502192183366218E-003  1.539296330295374E-003  1.577316949653657E-003  1.616276678310092E-003 
 1.656198712264356E-003  1.697106820457286E-003  1.739025358922594E-003  1.781979285287988E-003 
 1.825994173634581E-003  1.871096229723374E-003  1.917312306597538E-003  1.964669920570496E-003 
 2.013197267608587E-003  2.062923240118511E-003  2.113877444149437E-003  2.166090217019927E-003 
 2.219592645380315E-003  2.274416583721218E-003  2.330594673339127E-003  2.388160361770602E-003 
 2.447147922706335E-003  2.507592476397291E-003  2.569530010564261E-003  2.632997401825160E-003 
 2.698032437650314E-003  2.764673838860133E-003  2.832961282680074E-003  2.902935426362173E-003 
 2.974637931393390E-003  3.048111488298829E-003  3.123399842059833E-003  3.200547818158663E-003 
 3.279601349267095E-003  3.360607502594063E-003  3.443614507908188E-003  3.528671786253524E-003 
 3.615829979373866E-003  3.705140979864424E-003  3.796657962067202E-003  3.890435413730096E-003 
 3.986529168449227E-003  4.084996438909883E-003  4.185895850950958E-003  4.289287478469479E-003 
 4.395232879187663E-003  4.503795131303748E-003  4.615038871046833E-003  4.729030331161846E-003 
 4.845837380341461E-003  4.965529563635984E-003  5.088178143857752E-003  5.213856144011078E-003 
 5.342638390767971E-003  5.474601559020130E-003  5.609824217527717E-003  5.748386875700774E-003 
 5.890372031530602E-003  6.035864220709418E-003  6.184950066960978E-003  6.337718333614863E-003 
 6.494259976455168E-003  6.654668197873610E-003  6.819038502360973E-003  6.987468753369334E-003 
 7.160059231577533E-003  7.336912694597447E-003  7.518134438154021E-003  7.703832358776394E-003 
 7.894117018038159E-003  8.089101708383860E-003  8.288902520580784E-003  8.493638412839196E-003 
 8.703431281636424E-003  8.918406034292869E-003  9.138690663339921E-003  9.364416322724224E-003 
 9.595717405895623E-003  9.832731625821199E-003  1.007560009697892E-002  1.032446741937448E-002 
 1.057948176463290E-002  1.084079496421924E-002  1.110856259983555E-002  1.138294409605162E-002 
 1.166410281522394E-002  1.195220615476001E-002  1.224742564678263E-002  1.254993706025801E-002 
 1.285992050564645E-002  1.317756054213588E-002  1.350304628752682E-002  1.383657153082855E-002 
 1.417833484764005E-002  1.452853971837676E-002  1.488739464942066E-002  1.525511329726150E-002 
 1.563191459570365E-002  1.601802288621766E-002  1.641366805150715E-002  1.681908565237950E-002 
 1.723451706799325E-002  1.766020963957267E-002  1.809641681767009E-002  1.854339831306659E-002 
 1.900142025139936E-002  1.947075533160876E-002  1.995168298829956E-002  2.044448955811055E-002 
 2.094946845019587E-002  2.146692032091574E-002  2.199715325284229E-002  2.254048293818747E-002 
 2.309723286676071E-002  2.366773451856968E-002  2.425232756117854E-002  2.485136005194055E-002 
 2.546518864522309E-002  2.609417880475872E-002  2.673870502123773E-002  2.739915103526210E-002 
 2.807591006583334E-002  2.876938504445971E-002  2.947998885505585E-002  3.020814457977652E-002 
 3.095428575089668E-002  3.171885660894516E-002  3.250231236718481E-002  3.330511948265379E-002 
 3.412775593387526E-002  3.497071150544311E-002  3.583448807962735E-002  3.671959993519472E-002 
 3.762657405359306E-002  3.855595043271681E-002  3.950828240840477E-002  4.048413698389227E-002 
 4.148409516739581E-002  4.250875231803022E-002  4.355871850028541E-002  4.463461884724296E-002 
 4.573709393276969E-002  4.686680015290734E-002  4.802441011668555E-002  4.921061304656794E-002 
 5.042611518881676E-002  5.167164023398095E-002  5.294792974776159E-002  5.425574361253029E-002 
 5.559586047975917E-002  5.696907823360901E-002  5.837621446598040E-002  5.981810696328896E-002 
 6.129561420528208E-002  6.280961587615308E-002  6.436101338829452E-002  6.595073041898594E-002 
 6.757971346033557E-002  6.924893238280548E-002  7.095938101265929E-002  7.271207772367169E-002 
 7.450806604344844E-002  7.634841527472075E-002  7.823422113200668E-002  8.016660639396644E-002 
 8.214672157189833E-002  8.417574559472411E-002  8.625488651091266E-002  8.838538220773261E-002 
 9.056850114826309E-002  9.280554312662632E-002  9.509784004185447E-002  9.744675669088836E-002 
 9.985369158115236E-002  1.023200777632077E-001  1.048473836839580E-001  1.074371140609510E-001 
 1.100908107782570E-001  1.128100538044802E-001  1.155964621334502E-001  1.184516947481468E-001 
 1.213774516084270E-001  1.243754746631541E-001  1.274475488873346E-001  1.305955033448502E-001 
 1.338212122774688E-001  1.371265962207222E-001  1.405136231473746E-001  1.439843096391155E-001 
 1.475407220871998E-001  1.511849779227535E-001  1.549192468774475E-001  1.587457522753205E-001 
 1.626667723565190E-001  1.666846416337262E-001  1.708017522820797E-001  1.750205555634464E-001 
 1.793435632858624E-001  1.837733492990248E-001  1.883125510267088E-001  1.929638710370690E-001 
 1.977300786516852E-001  2.026140115943823E-001  2.076185776807635E-001  2.127467565494779E-001 
 2.180016014362507E-001  2.233862409917257E-001  2.289038811442216E-001  2.345578070084832E-001 
 2.403513848415918E-001  2.462880640471734E-001  2.523713792291452E-001  2.586049522960983E-001 
 2.649924946178278E-001  2.715378092348696E-001  2.782447931229809E-001  2.851174395131299E-001 
 2.921598402690940E-001  2.993761883237400E-001  3.067707801753273E-001  3.143480184456656E-001 
 3.221124145012727E-001  3.300685911394601E-001  3.382212853405917E-001  3.465753510885157E-001 
 3.551357622603892E-001  3.639076155882393E-001  3.728961336932591E-001  3.821066681954766E-001 
 3.915447028999157E-001  4.012158570615452E-001  4.111258887309669E-001  4.212806981826244E-001 
 4.316863314277273E-001  4.423489838139914E-001  4.532750037141941E-001  4.644708963059362E-001 
 4.759433274446848E-001  4.876991276325856E-001  4.997452960850948E-001  5.120890048984059E-001 
 5.247376033193819E-001  5.376986221213816E-001  5.509797780877880E-001  5.645889786065552E-001 
 5.785343263781186E-001  5.928241242396668E-001  6.074668801083877E-001  6.224713120470562E-001 
 6.378463534546222E-001  6.536011583849705E-001  6.697451069970756E-001  6.862878111398909E-001 
 7.032391200750500E-001  7.206091263409157E-001  7.384081717615156E-001  7.566468536040246E-001 
 7.753360308880630E-001  7.944868308509834E-001  8.141106555730013E-001  8.342191887656580E-001 
 8.548244027281798E-001  8.759385654755639E-001  8.975742480428055E-001  9.197443319694659E-001 
 9.424620169691184E-001  9.657408287882344E-001  9.895946272593172E-001  1.014037614552627E+000 
 1.039084343632058E+000  1.064749726919783E+000  1.091049045174691E+000  1.117997956590516E+000 
 1.145612506118303E+000  1.173909135019428E+000  1.202904690654393E+000  1.232616436513571E+000 
 1.263062062495462E+000  1.294259695439077E+000  1.326227909916443E+000  1.358985739291370E+000 
 1.392552687051876E+000  1.426948738422044E+000  1.462194372261070E+000  1.498310573255932E+000 
 1.535318844415330E+000  1.573241219872400E+000  1.612100278003245E+000  1.651919154869928E+000 
 1.692721557995209E+000  1.734531780477709E+000  1.777374715455501E+000  1.821275870927243E+000 
 1.866261384939148E+000
    </PP_RAB>
  </PP_MESH>
  <PP_LOCAL type="real" size="517" columns="4">
-8.080080900641599E+000 -8.080081186046600E+000 -8.080081464554000E+000 -8.080081736328800E+000 
-8.080082001532400E+000 -8.080082260322200E+000 -8.080082512851600E+000 -8.080082759270800E+000 
-8.080082999725400E+000 -8.080083234358399E+000 -8.080083463308600E+000 -8.080083686711600E+000 
-8.080083904699800E+000 -8.080084117402199E+000 -8.080084324944799E+000 -8.080084527449801E+000 
-8.080084725037599E+000 -8.080084917824401E+000 -8.080085105924001E+000 -8.080085289447799E+000 
-8.080085468503601E+000 -8.080085643197201E+000 -8.080085813630999E+000 -8.080085979905800E+000 
-8.080086142118800E+000 -8.080086300365400E+000 -8.080086454738399E+000 -8.080086605328001E+000 
-8.080086752222600E+000 -8.080086895507799E+000 -8.080087035267200E+000 -8.080087171582200E+000 
-8.080087304531800E+000 -8.080087434193400E+000 -8.080087560641800E+000 -8.080087683950399E+000 
-8.080087804189800E+000 -8.080087921429399E+000 -8.080088035736200E+000 -8.080088147175800E+000 
-8.080088255811200E+000 -8.080088361704600E+000 -8.080088464915200E+000 -8.080088565501800E+000 
-8.080088663520200E+000 -8.080088759025200E+000 -8.080088852069800E+000 -8.080088942705199E+000 
-8.080089030981000E+000 -8.080089116945400E+000 -8.080089200644601E+000 -8.080089282123399E+000 
-8.080089361424999E+000 -8.080089438591200E+000 -8.080089513661800E+000 -8.080089586675401E+000 
-8.080089657668999E+000 -8.080089726677800E+000 -8.080089793735800E+000 -8.080089858875199E+000 
-8.080089922126801E+000 -8.080089983519800E+000 -8.080090043081800E+000 -8.080090100838801E+000 
-8.080090156815199E+000 -8.080090211033999E+000 -8.080090263516400E+000 -8.080090314281801E+000 
-8.080090363348400E+000 -8.080090410732200E+000 -8.080090456447600E+000 -8.080090500507801E+000 
-8.080090542923401E+000 -8.080090583703400E+000 -8.080090622855201E+000 -8.080090660384000E+000 
-8.080090696293199E+000 -8.080090730583800E+000 -8.080090763254800E+000 -8.080090794303199E+000 
-8.080090823723401E+000 -8.080090851507601E+000 -8.080090877645601E+000 -8.080090902124400E+000 
-8.080090924928401E+000 -8.080090946039000E+000 -8.080090965435000E+000 -8.080090983091599E+000 
-8.080090998981399E+000 -8.080091013072799E+000 -8.080091025331001E+000 -8.080091035717400E+000 
-8.080091044189199E+000 -8.080091050699201E+000 -8.080091055196000E+000 -8.080091057622999E+000 
-8.080091057918800E+000 -8.080091056016000E+000 -8.080091051842199E+000 -8.080091045318200E+000 
-8.080091036358199E+000 -8.080091024869599E+000 -8.080091010751801E+000 -8.080090993896601E+000 