<UPF version="2.0.1">
  <PP_INFO>
    Generated using FHI98PP, converted with fhi2upf.x v.5.0.1
    Author: Abinit web site
    Generation date: 10-Jul-2012, PG
    Pseudopotential type: SL
    Element: Cs
    Functional: SLA-PW

    Suggested minimum cutoff for wavefunctions:   0. Ry
    Suggested minimum cutoff for charge density:   0. Ry
    The Pseudo was generated with a Non-Relativistic Calculation
    L component and cutoff radius for Local Potential:  1   0.0000

    Valence configuration: 
    nl pn  l   occ       Rcut    Rcut US       E pseu
    6s  6  0  1.00      0.000      0.000     0.000000
    6p  6  1  0.00      0.000      0.000     0.000000
    5d  5  2  0.00      0.000      0.000     0.000000
    4f  4  3  0.00      0.000      0.000     0.000000

    Generation configuration: not available.
    Comment:
    caesium, fhi98PP : Trouiller-Martins-type, LDA Ceperley/Alder Perdew/Wang (1992)
  </PP_INFO>
  <!--                               -->
  <!-- END OF HUMAN READABLE SECTION -->
  <!--                               -->
  <PP_HEADER generated="Generated using FHI98PP, converted with fhi2upf.x v.5.0.1"
             author="Abinit web site"
             date="10-Jul-2012, PG"
             comment="caesium, fhi98PP : Trouiller-Martins-type, LDA Ceperley/Alder Perdew/Wang (1992)"
             element="Cs"
             pseudo_type="SL"
             relativistic="no"
             is_ultrasoft="F"
             is_paw="F"
             is_coulomb="F"
             has_so="F"
             has_wfc="F"
             has_gipaw="F"
             paw_as_gipaw="F"
             core_correction="T"
             functional="SLA-PW"
             z_valence="1.000000000000000E+000"
             total_psenergy="0.000000000000000E+000"
             wfc_cutoff="0.000000000000000E+000"
             rho_cutoff="0.000000000000000E+000"
             l_max="3"
             l_max_rho="0"
             l_local="1"
             mesh_size="551"
             number_of_wfc="4"
             number_of_proj="3"/>
  <PP_MESH dx="2.439988682353512E-002" mesh="551" xmin="-5.075173815233859E+000" rmax="7.651071164074300E+001"
zmesh="5.500000000000000E+001">
    <PP_R type="real" size="551" columns="4">
 1.136363636363600E-004  1.164431818181800E-004  1.193193284090900E-004  1.222665158208000E-004 
 1.252864987615700E-004  1.283810752809800E-004  1.315520878404200E-004  1.348014244100800E-004 
 1.381310195930100E-004  1.415428557769500E-004  1.450389643146500E-004  1.486214267332200E-004 
 1.522923759735300E-004  1.560539976600700E-004  1.599085314022800E-004  1.638582721279100E-004 
 1.679055714494700E-004  1.720528390642800E-004  1.763025441891600E-004  1.806572170306400E-004 
 1.851194502912900E-004  1.896919007134900E-004  1.943772906611100E-004  1.991784097404400E-004 
 2.040981164610300E-004  2.091393399376200E-004  2.143050816340700E-004  2.195984171504400E-004 
 2.250224980540500E-004  2.305805537559900E-004  2.362758934337600E-004  2.421119080015700E-004 
 2.480920721292100E-004  2.542199463108000E-004  2.604991789846800E-004  2.669335087056000E-004 
 2.735267663706300E-004  2.802828774999900E-004  2.872058645742300E-004  2.942998494292200E-004 
 3.015690557101200E-004  3.090178113861600E-004  3.166505513274000E-004  3.244718199451900E-004 
 3.324862738978300E-004  3.406986848631100E-004  3.491139423792300E-004  3.577370567559900E-004 
 3.665731620578700E-004  3.756275191607000E-004  3.849055188839600E-004  3.944126852004000E-004 
 4.041546785248500E-004  4.141372990844100E-004  4.243664903718000E-004  4.348483426839800E-004 
 4.455890967482700E-004  4.565951474379600E-004  4.678730475796700E-004  4.794295118548900E-004 
 4.912714207977100E-004  5.034058248914100E-004  5.158399487662300E-004  5.285811955007600E-004 
 5.416371510296200E-004  5.550155886600600E-004  5.687244736999600E-004  5.827719682003500E-004 
 5.971664358149000E-004  6.119164467795200E-004  6.270307830149800E-004  6.425184433554500E-004 
 6.583886489063300E-004  6.746508485343100E-004  6.913147244931100E-004  7.083901981880900E-004 
 7.258874360833400E-004  7.438168557546000E-004  7.621891320917301E-004  7.810152036544000E-004 
 8.003062791846600E-004  8.200738442805200E-004  8.403296682342500E-004  8.610858110396400E-004 
 8.823546305723200E-004  9.041487899474600E-004  9.264812650591600E-004  9.493653523061200E-004 
 9.728146765080800E-004  9.968431990178301E-004  1.021465226033600E-003  1.046695417116600E-003 
 1.072548793919400E-003  1.099040749129200E-003  1.126187055632700E-003  1.154003875906800E-003 
 1.182507771641700E-003  1.211715713601300E-003  1.241645091727200E-003  1.272313725492900E-003 
 1.303739874512500E-003  1.335942249413000E-003  1.368940022973500E-003  1.402752841540900E-003 
 1.437400836727000E-003  1.472904637394200E-003  1.509285381937800E-003  1.546564730871700E-003 
 1.584764879724200E-003  1.623908572253400E-003  1.664019113988000E-003  1.705120386103500E-003 
 1.747236859640300E-003  1.790393610073400E-003  1.834616332242200E-003  1.879931355648600E-003 
 1.926365660133100E-003  1.973946891938400E-003  2.022703380169300E-003  2.072664153659500E-003 
 2.123858958254900E-003  2.176318274523800E-003  2.230073335904500E-003  2.285156147301300E-003 
 2.341599504139700E-003  2.399437011891900E-003  2.458703106085700E-003  2.519433072806000E-003 
 2.581663069704300E-003  2.645430147526000E-003  2.710772272169900E-003  2.777728347292500E-003 
 2.846338237470600E-003  2.916642791936100E-003  2.988683868896900E-003  3.062504360458700E-003 
 3.138148218162000E-003  3.215660479150600E-003  3.295087292985700E-003  3.376475949122400E-003 
 3.459874905065700E-003  3.545333815220800E-003  3.632903560456800E-003  3.722636278400100E-003 
 3.814585394476600E-003  3.908805653720100E-003  4.005353153367000E-003  4.104285376255200E-003 
 4.205661225048700E-003  4.309541057307400E-003  4.415986721422900E-003  4.525061593442000E-003 
 4.636830614800000E-003  4.751360330985600E-003  4.868718931160900E-003  4.988976288760600E-003 
 5.112204003093000E-003  5.238475441969400E-003  5.367865785386100E-003  5.500452070285100E-003 
 5.636313236421100E-003  5.775530173360700E-003  5.918185768642700E-003  6.064364957128200E-003 
 6.214154771569300E-003  6.367644394427000E-003  6.524925210969400E-003  6.686090863680300E-003 
 6.851237308013200E-003  7.020462869521200E-003  7.193868302398300E-003  7.371556849467600E-003 
 7.553634303649400E-003  7.740209070949600E-003  7.931392235001999E-003  8.127297623206600E-003 
 8.328041874499800E-003  8.533744508799899E-003  8.744527998167301E-003  8.960517839722000E-003 
 9.181842630363099E-003  9.408634143333100E-003  9.641027406673400E-003  9.879160783618300E-003 
 1.012317605497400E-002  1.037321850353100E-002  1.062943700056900E-002  1.089198409448300E-002 
 1.116101610161600E-002  1.143669319932600E-002  1.171917952135000E-002  1.200864325552700E-002 
 1.230525674393900E-002  1.260919658551400E-002  1.292064374117600E-002  1.323978364158300E-002 
 1.356680629753000E-002  1.390190641307900E-002  1.424528350148200E-002  1.459714200396900E-002 
 1.495769141146700E-002  1.532714638933000E-002  1.570572690514700E-002  1.609365835970400E-002 
 1.649117172118800E-002  1.689850366270200E-002  1.731589670317100E-002  1.774359935173900E-002 
 1.818186625572700E-002  1.863095835224300E-002  1.909114302354400E-002  1.956269425622500E-002 
 2.004589280435400E-002  2.054102635662100E-002  2.104838970763000E-002  2.156828493340800E-002 
 2.210102157126400E-002  2.264691680407400E-002  2.320629564913500E-002  2.377949115166800E-002 
 2.436684458311400E-002  2.496870564431700E-002  2.558543267373200E-002  2.621739286077300E-002 
 2.686496246443400E-002  2.752852703730600E-002  2.820848165512700E-002  2.890523115200900E-002 
 2.961919036146300E-002  3.035078436339200E-002  3.110044873716700E-002  3.186862982097500E-002 
 3.265578497755300E-002  3.346238286649900E-002  3.428890372330200E-002  3.513583964526700E-002 
 3.600369488450500E-002  3.689298614815200E-002  3.780424290601200E-002  3.873800770579000E-002 
 3.969483649612300E-002  4.067529895757800E-002  4.167997884183000E-002  4.270947431922300E-002 
 4.376439833490800E-002  4.484537897378000E-002  4.595305983443200E-002  4.708810041234300E-002 
 4.825117649252800E-002  4.944298055189300E-002  5.066422217152500E-002  5.191562845916100E-002 
 5.319794448210300E-002  5.451193371081100E-002  5.585837847346800E-002  5.723808042176200E-002 
 5.865186100818000E-002  6.010056197508200E-002  6.158504585586600E-002  6.310619648850600E-002 
 6.466491954177200E-002  6.626214305445401E-002  6.789881798789900E-002  6.957591879220000E-002 
 7.129444398636800E-002  7.305541675283100E-002  7.485988554662600E-002  7.670892471962799E-002 
 7.860363516020200E-002  8.054514494865900E-002  8.253461002889100E-002  8.457321489660501E-002 
 8.666217330455100E-002  8.880272898517300E-002  9.099615639110700E-002  9.324376145396800E-002 
 9.554688236188100E-002  9.790689035621900E-002  1.003251905480200E-001  1.028032227545500E-001 
 1.053424623565900E-001  1.079444211768000E-001  1.106106483798700E-001  1.133427313948500E-001 
 1.161422968603000E-001  1.190110115927500E-001  1.219505835790900E-001  1.249627629935000E-001 
 1.280493432394300E-001  1.312121620174500E-001  1.344531024192800E-001  1.377740940490400E-001 
 1.411771141720500E-001  1.446641888921000E-001  1.482373943577300E-001  1.518988579983700E-001 
 1.556507597909300E-001  1.594953335577600E-001  1.634348682966400E-001  1.674717095435700E-001 
 1.716082607692900E-001  1.758469848102900E-001  1.801904053351100E-001  1.846411083468900E-001 
 1.892017437230500E-001  1.938750267930100E-001  1.986637399548000E-001  2.035707343316800E-001 
 2.085989314696800E-001  2.137513250769800E-001  2.190309828063800E-001  2.244410480817000E-001 
 2.299847419693100E-001  2.356653650959600E-001  2.414862996138300E-001  2.474510112142900E-001 
 2.535630511912800E-001  2.598260585557100E-001  2.662437622020300E-001  2.728199831284200E-001 
 2.795586367116900E-001  2.864637350384700E-001  2.935393892939200E-001  3.007898122094800E-001 
 3.082193205710600E-001  3.158323377891600E-001  3.236333965325500E-001  3.316271414269100E-001 
 3.398183318201500E-001  3.482118446161100E-001  3.568126771781300E-001  3.656259503044300E-001 
 3.746569112769500E-001  3.839109369854900E-001  3.933935371290300E-001  4.031103574961200E-001 
 4.130671833262700E-001  4.232699427544300E-001  4.337247103404600E-001  4.444377106858700E-001 
 4.554153221398100E-001  4.666640805966700E-001  4.781906833874100E-001  4.900019932670700E-001 
 5.021050425007700E-001  5.145070370505400E-001  5.272153608656900E-001  5.402375802790700E-001 
 5.535814485119600E-001  5.672549102902100E-001  5.812661065743800E-001  5.956233794067600E-001 
 6.103352768781100E-001  6.254105582170000E-001  6.408581990049600E-001  6.566873965203800E-001 
 6.729075752144400E-001  6.895283923222300E-001  7.065597436125900E-001  7.240117692798200E-001 
 7.418948599810300E-001  7.602196630225700E-001  7.789970886992200E-001  7.982383167900901E-001 
 8.179548032148100E-001  8.381582868542200E-001  8.588607965395100E-001  8.800746582140400E-001 
 9.018125022719300E-001  9.240872710780400E-001  9.469122266736700E-001  9.703009586725100E-001 
 9.942673923517200E-001  1.018825796942800E+000  1.043990794127300E+000  1.069777366742200E+000 
 1.096200867700800E+000  1.123277029133000E+000  1.151021971752600E+000  1.179452214454900E+000 
 1.208584684151900E+000  1.238436725850400E+000  1.269026112978900E+000  1.300371057969500E+000 
 1.332490223101400E+000  1.365402731612000E+000  1.399128179082800E+000  1.433686645106100E+000 
 1.469098705240300E+000  1.505385443259700E+000  1.542568463708200E+000  1.580669904761800E+000 
 1.619712451409400E+000  1.659719348959200E+000  1.700714416878500E+000  1.742722062975400E+000 
 1.785767297930900E+000  1.829875750189800E+000  1.875073681219500E+000  1.921388001145600E+000 
 1.968846284773900E+000  2.017476788007800E+000  2.067308464671600E+000  2.118370983749000E+000 
 2.170694747047600E+000  2.224310907299700E+000  2.279251386710000E+000  2.335548895961700E+000 
 2.393236953692000E+000  2.452349906448200E+000  2.512922949137400E+000  2.574992145981100E+000 
 2.638594451986900E+000  2.703767734951000E+000  2.770550798004200E+000  2.838983402714900E+000 
 2.909106292762000E+000  2.980961218193200E+000  3.054590960282600E+000  3.130039357001600E+000 
 3.207351329119500E+000  3.286572906948800E+000  3.367751257750400E+000  3.450934713816800E+000 
 3.536172801248100E+000  3.623516269438900E+000  3.713017121294100E+000  3.804728644190000E+000 
 3.898705441701500E+000  3.995003466111600E+000  4.093680051724500E+000  4.194793949002100E+000 
 4.298405359542500E+000  4.404575971923200E+000  4.513368998429700E+000  4.624849212690900E+000 
 4.739082988244400E+000  4.856138338054000E+000  4.976084955003900E+000  5.098994253392500E+000 
 5.224939411451300E+000  5.353995414914200E+000  5.486239101662500E+000  5.621749207473600E+000 
 5.760606412898200E+000  5.902893391296800E+000  6.048694858061800E+000  6.198097621055900E+000 
 6.351190632296000E+000  6.508065040913700E+000  6.668814247424300E+000  6.833533959335700E+000 
 7.002322248131300E+000  7.175279607660100E+000  7.352509013969300E+000  7.534115986614400E+000 
 7.720208651483700E+000  7.910897805175400E+000  8.106296980963201E+000  8.306522516393001E+000 
 8.511693622547901E+000  8.721932455024801E+000  8.937364186664000E+000  9.158117082074600E+000 
 9.384322574001800E+000  9.616115341579601E+000  9.853633390516700E+000  1.009701813526200E+001 
 1.034641448320300E+001  1.060197092093900E+001  1.086383960268600E+001  1.113217644087200E+001 
 1.140714119896200E+001  1.168889758657600E+001  1.197761335696400E+001  1.227346040688100E+001 
 1.257661487893100E+001  1.288725726644100E+001  1.320557252092200E+001  1.353175016218900E+001 
 1.386598439119500E+001  1.420847420565700E+001  1.455942351853700E+001  1.491904127944500E+001 
 1.528754159904700E+001  1.566514387654400E+001  1.605207293029400E+001  1.644855913167300E+001 
 1.685483854222500E+001  1.727115305421800E+001  1.769775053465700E+001  1.813488497286300E+001 
 1.858281663169300E+001  1.904181220249600E+001  1.951214496389700E+001  1.999409494450600E+001 
 2.048794908963500E+001  2.099400143214900E+001  2.151255326752300E+001  2.204391333323100E+001 
 2.258839799256200E+001  2.314633142297800E+001  2.371804580912500E+001  2.430388154061100E+001 
 2.490418741466400E+001  2.551932084380600E+001  2.614964806864800E+001  2.679554437594400E+001 
 2.745739432202900E+001  2.813559196178400E+001  2.883054108324000E+001  2.954265544799600E+001 
 3.027235903756100E+001  3.102008630578900E+001  3.178628243754200E+001  3.257140361374900E+001 
 3.337591728300900E+001  3.420030243989900E+001  3.504504991016500E+001  3.591066264294600E+001 
 3.679765601022600E+001  3.770655811367900E+001  3.863791009908700E+001  3.959226647853400E+001 
 4.057019546055400E+001  4.157227928843000E+001  4.259911458685400E+001  4.365131271714900E+001 
 4.472950014126300E+001  4.583431879475200E+001  4.696642646898200E+001  4.812649720276600E+001 
 4.931522168367500E+001  5.053330765926100E+001  5.178148035844500E+001  5.306048292329900E+001 
 5.437107685150400E+001  5.571404244973600E+001  5.709017929824500E+001  5.850030672691100E+001 
 5.994526430306600E+001  6.142591233135200E+001  6.294313236593600E+001  6.449782773537500E+001 
 6.609092408043900E+001  6.772336990522500E+001  6.939613714188501E+001  7.111022172928899E+001 
 7.286664420600199E+001  7.466645031789101E+001  7.651071164074300E+001
    </PP_R>
    <PP_RAB type="real" size="551" columns="4">
 2.772714411765266E-006  2.841200457735915E-006  2.911378109042015E-006  2.983289148335486E-006 
 3.056976390299281E-006  3.132483707139654E-006  3.209856054705999E-006  3.289139499257277E-006 
 3.370381244888956E-006  3.453629661637534E-006  3.538934314280209E-006  3.626345991842885E-006 
 3.715916737841391E-006  3.807699881265922E-006  3.901750068333344E-006  3.998123295021024E-006 
 4.096876940408058E-006  4.198069800836334E-006  4.301762124916803E-006  4.408015649402438E-006 
 4.516893635942511E-006  4.628460908750418E-006  4.742783893196474E-006  4.859930655358441E-006 
 4.979970942545823E-006  5.102976224826766E-006  5.229019737579763E-006  5.358176525098190E-006 
 5.490523485267972E-006  5.626139415354212E-006  5.765105058913389E-006  5.907503153868455E-006 
 6.053418481769036E-006  6.202937918268694E-006  6.356150484850011E-006  6.513147401825767E-006 
 6.674022142650904E-006  6.838870489574515E-006  7.007790590666767E-006  7.180883018256394E-006 
 7.358250828807286E-006  7.539999624278826E-006  7.726237614998558E-006  7.917075684089101E-006 
 8.112627453485951E-006  8.313009351587143E-006  8.518340682571374E-006  8.728743697430716E-006 
 8.944343666757427E-006  9.165268955326351E-006  9.391651098522684E-006  9.623624880656346E-006 
 9.861328415208561E-006  1.010490322706412E-005  1.035449433677273E-005  1.061025034689093E-005 
 1.087232353045903E-005  1.114086992166156E-005  1.141604940872641E-005  1.169802582912201E-005 
 1.198696706710142E-005  1.228304515365874E-005  1.258643636895417E-005  1.289732134726744E-005 
 1.321588518454473E-005  1.354231754860319E-005  1.387681279205360E-005  1.421957006801735E-005 
 1.457079344869741E-005  1.493069204688004E-005  1.529948014043812E-005  1.567737729990694E-005 
 1.606460851921465E-005  1.646140434963910E-005  1.686800103707525E-005  1.728464066269101E-005 
 1.771157128705958E-005  1.814904709784999E-005  1.859732856116668E-005  1.905668257662759E-005 
 1.952738263627020E-005  2.000970898738605E-005  2.050394879937452E-005  2.101039633471916E-005 
 2.152935312418675E-005  2.206112814635425E-005  2.260603801156915E-005  2.316440715045487E-005 
 2.373656800707108E-005  2.432286123684575E-005  2.492363590939656E-005  2.553924971635793E-005 
 2.617006918435246E-005  2.681646989320573E-005  2.747883669956813E-005  2.815756396604679E-005 
 2.885305579600819E-005  2.956572627417081E-005  3.029599971314156E-005  3.104431090605709E-005 
 3.181110538543488E-005  3.259683968845613E-005  3.340198162876097E-005  3.422701057499025E-005 
 3.507241773619349E-005  3.593870645427852E-005  3.682639250369829E-005  3.773600439854053E-005 
 3.866808370718373E-005  3.962318537475146E-005  4.060187805350639E-005  4.160474444142791E-005 
 4.263238162913224E-005  4.368540145537143E-005  4.476443087131879E-005  4.587011231384079E-005 
 4.700310408799216E-005  4.816408075896588E-005  4.935373355371286E-005  5.057277077249001E-005 
 5.182191821057077E-005  5.310191959037195E-005  5.441353700425322E-005  5.575755136825727E-005 
 5.713476288705463E-005  5.854599153036366E-005  5.999207752116535E-005  6.147388183593773E-005 
 6.299228671728519E-005  6.454819619920222E-005  6.614253664532271E-005  6.777625730046226E-005 
 6.945033085578307E-005  7.116575402792034E-005  7.292354815240944E-005  7.472475979177508E-005 
 7.657046135863121E-005  7.846175175418935E-005  8.039975702251979E-005  8.238563102097488E-005 
 8.442055610719239E-005  8.650574384303950E-005  8.864243571596371E-005  9.083190387814842E-005 
 9.307545190393911E-005  9.537441556596465E-005  9.773016363044432E-005  1.001440986721171E-004 
 1.026176579093183E-004  1.051523140596784E-004  1.077495762169527E-004  1.104109907495103E-004 
 1.131381422210228E-004  1.159326543338830E-004  1.187961908959288E-004  1.217304568110589E-004 
 1.247371990942924E-004  1.278182079119215E-004  1.309753176473473E-004  1.342104079932359E-004 
 1.375254050706678E-004  1.409222825759132E-004  1.444030629555381E-004  1.479698186105405E-004 
 1.516246731302217E-004  1.553698025565366E-004  1.592074366796844E-004  1.631398603656715E-004 
 1.671694149167035E-004  1.712984994651479E-004  1.755295724019352E-004  1.798651528402646E-004 
 1.843078221154179E-004  1.888602253216702E-004  1.935250728871141E-004  1.983051421874270E-004 
 2.032032791994564E-004  2.082224001956819E-004  2.133654934805163E-004  2.186356211694842E-004 
 2.240359210123696E-004  2.295696082613759E-004  2.352399775854313E-004  2.410504050317931E-004 
 2.470043500360864E-004  2.531053574819567E-004  2.593570598117802E-004  2.657631791891299E-004 
 2.723275297150835E-004  2.790540196990482E-004  2.859466539856305E-004  2.930095363390671E-004 
 3.002468718866539E-004  3.076629696222471E-004  3.152622449719118E-004  3.230492224227169E-004 
 3.310285382165556E-004  3.392049431105047E-004  3.475833052053329E-004  3.561686128439143E-004 
 3.649659775811581E-004  3.739806372274070E-004  3.832179589669373E-004  3.926834425534175E-004 
 4.023827235844701E-004  4.123215768570225E-004  4.225059198053974E-004  4.329418160245828E-004 
 4.436354788803911E-004  4.545932752087256E-004  4.658217291063958E-004  4.773275258153106E-004 
 4.891175157029547E-004  5.011987183408044E-004  5.135783266838335E-004  5.262637113529129E-004 
 5.392624250233499E-004  5.525822069214213E-004  5.662309874323896E-004  5.802168928219541E-004 
 5.945482500746514E-004  6.092335918514973E-004  6.242816615702383E-004  6.397014186110189E-004 
 6.555020436507088E-004  6.716929441288930E-004  6.882837598488654E-004  7.052843687171413E-004 
 7.227048926244394E-004  7.405557034722843E-004  7.588474293480305E-004  7.775909608529263E-004 
 7.967974575859915E-004  8.164783547883765E-004  8.366453701516607E-004  8.573105107943932E-004 
 8.784860804110124E-004  9.001846865971578E-004  9.224192483561234E-004  9.452030037905074E-004 
 9.685495179841327E-004  9.924726910783594E-004  1.016986766547991E-003  1.042106339681721E-003 
 1.067846366271864E-003  1.094222171518774E-003  1.121249459155278E-003  1.148944320796427E-003 
 1.177323245520102E-003  1.206403129684437E-003  1.236201286987649E-003  1.266735458776227E-003 
 1.298023824608018E-003  1.330085013075837E-003  1.362938112898810E-003  1.396602684287394E-003 
 1.431098770589304E-003  1.466446910222859E-003  1.502668148905351E-003  1.539784052183316E-003 
 1.577816718272241E-003  1.616788791213572E-003  1.656723474356546E-003  1.697644544173150E-003 
 1.739576364414243E-003  1.782543900615268E-003  1.826572734960467E-003  1.871689081513999E-003 
 1.917919801827375E-003  1.965292420932511E-003  2.013835143729547E-003  2.063576871779677E-003 
 2.114547220512631E-003  2.166776536859283E-003  2.220295917319713E-003  2.275137226477526E-003 
 2.331333115971520E-003  2.388917043936006E-003  2.447923294921283E-003  2.508387000305691E-003 
 2.570344159213305E-003  2.633831659945928E-003  2.698887301946667E-003  2.765549818304681E-003 
 2.833858898816738E-003  2.903855213617526E-003  2.975580437393857E-003  3.049077274197643E-003 
 3.124389482870095E-003  3.201561903097134E-003  3.280640482103608E-003  3.361672302011660E-003 
 3.444705607871316E-003  3.529789836385747E-003  3.616975645344356E-003  3.706314943784460E-003 
 3.797860922895943E-003  3.891668087691327E-003  3.987792289457385E-003  4.086290759007054E-003 
 4.187222140754379E-003  4.290646527630976E-003  4.396625496863603E-003  4.505222146636202E-003 
 4.616501133657916E-003  4.730528711659283E-003  4.847372770837332E-003  4.967102878276927E-003 
 5.089790319370551E-003  5.215508140258977E-003  5.344331191323339E-003  5.476336171749085E-003 
 5.611601675191092E-003  5.750208236568508E-003  5.892238380011745E-003  6.037776667997996E-003 
 6.186909751697473E-003  6.339726422564533E-003  6.496317665201730E-003  6.656776711532209E-003 
 6.821199096307007E-003  6.989682713985821E-003  7.162327877021264E-003  7.339237375583694E-003 
 7.520516538760754E-003  7.706273297268018E-003  7.896618247710483E-003  8.091664718429080E-003 
 8.291528836974163E-003  8.496329599247482E-003  8.706188940348945E-003  8.921231807175569E-003 
 9.141586232812820E-003  9.367383412763280E-003  9.598757783058494E-003  9.835847100300110E-003 
 1.007879252367742E-002  1.032773869901228E-002  1.058283384487778E-002  1.084422984084627E-002 
 1.111208231791515E-002  1.138655075116782E-002  1.166779855472172E-002  1.195599317902313E-002 
 1.225130621054508E-002  1.255391347394557E-002  1.286399513675206E-002  1.318173581662978E-002 
 1.350732469130046E-002  1.384095561117569E-002  1.418282721477178E-002  1.453314304697646E-002 
 1.489211168023685E-002  1.525994683873872E-002  1.563686752565557E-002  1.602309815353920E-002 
 1.641886867793178E-002  1.682441473427653E-002  1.723997777821319E-002  1.766580522933503E-002 
 1.810215061849957E-002  1.854927373877672E-002  1.900744080012432E-002  1.947692458788737E-002 
 1.995800462520830E-002  2.045096733945105E-002  2.095610623273527E-002  2.147372205668393E-002 
 2.200412299148410E-002  2.254762482937360E-002  2.310455116265918E-002  2.367523357637687E-002 
 2.426001184571336E-002  2.485923413830230E-002  2.547325722151867E-002  2.610244667488910E-002 
 2.674717710776052E-002  2.740783238232197E-002  2.808480584216568E-002  2.877850054646744E-002 
 2.948932950996430E-002  3.021771594885915E-002  3.096409353279585E-002  3.172890664305643E-002 
 3.251261063714123E-002  3.331567211987850E-002  3.413856922123910E-002  3.498179188100260E-002 
 3.584584214046530E-002  3.673123444133393E-002  3.763849593203453E-002  3.856816678155596E-002 
 3.952080050105999E-002  4.049696427343587E-002  4.149723929098993E-002  4.252222110147741E-002 
 4.357251996268408E-002  4.464876120576255E-002  4.575158560754517E-002  4.688164977205101E-002 
 4.803962652142076E-002  4.922620529649948E-002  5.044209256732320E-002  5.168801225373636E-002 
 5.296470615640363E-002  5.427293439846739E-002  5.561347587810948E-002  5.698712873229789E-002 
 5.839471081198676E-002  5.983706016904302E-002  6.131503555521666E-002  6.282951693343067E-002 
 6.438140600168803E-002  6.597162672993030E-002  6.760112591015739E-002  6.927087372013818E-002 
 7.098186430102663E-002  7.273511634926147E-002  7.453167372308890E-002  7.637260606404968E-002 
 7.825900943383075E-002  8.019200696684754E-002  8.217274953892781E-002  8.420241645253848E-002 
 8.628221613891679E-002  8.841338687754735E-002  9.059719753342421E-002  9.283494831249822E-002 
 9.512797153581710E-002  9.747763243275356E-002  9.988532995384121E-002  1.023524976037012E-001 
 1.048806042945138E-001  1.074711552205883E-001  1.101256927545367E-001  1.128457973655735E-001 
 1.156330885605040E-001  1.184892258479475E-001  1.214159097263910E-001  1.244148826966330E-001 
 1.274879302992399E-001  1.306368821776324E-001  1.338636131674180E-001  1.371700444126541E-001 
 1.405581445096467E-001  1.440299306790353E-001  1.475874699668067E-001  1.512328804749862E-001 
 1.549683326227189E-001  1.587960504384998E-001  1.627183128843315E-001  1.667374552125749E-001 
 1.708558703563257E-001  1.750760103541259E-001  1.794003878098727E-001  1.838315773887780E-001 
 1.883722173502790E-001  1.930250111188322E-001  1.977927288934665E-001  2.026782092971354E-001 
 2.076843610667744E-001  2.128141647851230E-001  2.180706746553176E-001  2.234570203193040E-001 
 2.289764087211897E-001  2.346321260166020E-001  2.404275395292141E-001  2.463660997555744E-001 
 2.524513424195378E-001  2.586868905773220E-001  2.650764567745771E-001  2.716238452569008E-001 
 2.783329542347575E-001  2.852077782043472E-001  2.922524103259841E-001  2.994710448610357E-001 
 3.068679796691043E-001  3.144476187669410E-001  3.222144749504822E-001  3.301731724817646E-001 
 3.383284498420625E-001  3.466851625531489E-001  3.552482860682183E-001  3.640229187341066E-001 
 3.730142848268319E-001  3.822277376620679E-001  3.916687627823053E-001  4.013429812230463E-001 
 4.112561528592477E-001  4.214141798348722E-001  4.318231100767890E-001  4.424891408956850E-001 
 4.534186226758153E-001  4.646180626559124E-001  4.760941288034976E-001  4.878536537849621E-001 
 4.999036390334434E-001  5.122512589175698E-001  5.249038650128318E-001  5.378689904786532E-001 
 5.511543545434807E-001  5.647678671006978E-001  5.787176334180715E-001  5.930119589635128E-001 
 6.076593543499094E-001  6.226685404023472E-001  6.380484533502849E-001  6.538082501480467E-001 
 6.699573139266835E-001  6.865052595806941E-001  7.034619394923357E-001  7.208374493977957E-001 
 7.386421343979089E-001  7.568865951175433E-001  7.755816940169469E-001  7.947385618591584E-001 
 8.143686043370895E-001  8.344835088642076E-001  8.550952515331656E-001  8.762161042460330E-001 
 8.978586420208913E-001  9.200357504788176E-001  9.427606335156475E-001  9.660468211634731E-001 
 9.899081776462159E-001  1.014358909634085E+000  1.039413574702042E+000  1.065087089997175E+000 
 1.091394741120115E+000  1.118352191225777E+000  1.145975490349045E+000  1.174281084960670E+000 
 1.203285827759215E+000  1.233006987704849E+000  1.263462260301165E+000  1.294669778130614E+000 
 1.326648121650428E+000  1.359416330255190E+000  1.392993913612506E+000  1.427400863278719E+000 
 1.462657664601710E+000  1.498785308917379E+000  1.535805306047629E+000  1.573739697107015E+000 
 1.612611067625563E+000  1.652442560995894E+000  1.693257892252516E+000  1.735081362191139E+000 
 1.777937871837250E+000  1.821852937271649E+000  1.866852704822260E+000
    </PP_RAB>
  </PP_MESH>
  <PP_NLCC type="real" size="551" columns="4">
 1.556782833581312E-002  1.556782833581312E-002  1.556782833581312E-002  1.556782833581312E-002 
 1.556782833581312E-002  1.556782833581232E-002  1.556782833581232E-002  1.556782833581232E-002 
 1.556782833581232E-002  1.556782833581232E-002  1.556782833581152E-002  1.556782833581152E-002 
 1.556782833581152E-002  1.556782833581152E-002  1.556782833581073E-002  1.556782833581073E-002 
 1.556782833580993E-002  1.556782833580993E-002  1.556782833580993E-002  1.556782833580914E-002 
 1.556782833580914E-002  1.556782833580834E-002  1.556782833580834E-002  1.556782833580755E-002 
 1.556782833580675E-002  1.556782833580675E-002  1.556782833580595E-002  1.556782833580516E-002 
 1.556782833580436E-002  1.556782833580357E-002  1.556782833580277E-002  1.556782833580198E-002 
 1.556782833580118E-002  1.556782833579959E-002  1.556782833579879E-002  1.556782833579800E-002 