<UPF version="2.0.1">
  <PP_INFO>
    Generated using FHI98PP, converted with fhi2upf.x v.5.0.1
    Author: Abinit web site
    Generation date: 10-Jul-2012, PG
    Pseudopotential type: SL
    Element: Cu
    Functional: SLA-PW

    Suggested minimum cutoff for wavefunctions:   0. Ry
    Suggested minimum cutoff for charge density:   0. Ry
    The Pseudo was generated with a Non-Relativistic Calculation
    L component and cutoff radius for Local Potential:  0   0.0000

    Valence configuration: 
    nl pn  l   occ       Rcut    Rcut US       E pseu
    4s  4  0  2.00      0.000      0.000     0.000000
    4p  4  1  0.00      0.000      0.000     0.000000
    3d  3  2  9.00      0.000      0.000     0.000000
    4f  4  3  0.00      0.000      0.000     0.000000

    Generation configuration: not available.
    Comment:
    copper, fhi98PP : Trouiller-Martins-type, LDA Ceperley/Alder Perdew/Wang (1992),
  </PP_INFO>
  <!--                               -->
  <!-- END OF HUMAN READABLE SECTION -->
  <!--                               -->
  <PP_HEADER generated="Generated using FHI98PP, converted with fhi2upf.x v.5.0.1"
             author="Abinit web site"
             date="10-Jul-2012, PG"
             comment="copper, fhi98PP : Trouiller-Martins-type, LDA Ceperley/Alder Perdew/Wang (1992),"
             element="Cu"
             pseudo_type="SL"
             relativistic="no"
             is_ultrasoft="F"
             is_paw="F"
             is_coulomb="F"
             has_so="F"
             has_wfc="F"
             has_gipaw="F"
             paw_as_gipaw="F"
             core_correction="F"
             functional="SLA-PW"
             z_valence="1.100000000000000E+001"
             total_psenergy="0.000000000000000E+000"
             wfc_cutoff="0.000000000000000E+000"
             rho_cutoff="0.000000000000000E+000"
             l_max="3"
             l_max_rho="0"
             l_local="0"
             mesh_size="525"
             number_of_wfc="4"
             number_of_proj="3"/>
  <PP_MESH dx="2.439988682353512E-002" mesh="525" xmin="-5.075173815233828E+000" rmax="7.694347414932700E+001"
zmesh="2.900000000000000E+001">
    <PP_R type="real" size="525" columns="4">
 2.155172413793100E-004  2.208405172413800E-004  2.262952780172400E-004  2.318847713842700E-004 
 2.376123252374600E-004  2.434813496708200E-004  2.494953390076900E-004  2.556578738811800E-004 
 2.619726233660500E-004  2.684433471631900E-004  2.750738978381200E-004  2.818682231147200E-004 
 2.888303682256600E-004  2.959644783208300E-004  3.032748009353500E-004  3.107656885184600E-004 
 3.184416010248600E-004  3.263071085701800E-004  3.343668941518600E-004  3.426257564374100E-004 
 3.510886126214200E-004  3.597605013531600E-004  3.686465857365900E-004  3.777521564042800E-004 
 3.870826346674700E-004  3.966435757437500E-004  4.064406720646200E-004  4.164797566646200E-004 
 4.267668066542400E-004  4.373079467786000E-004  4.481094530640300E-004  4.591777565547100E-004 
 4.705194471416100E-004  4.821412774860100E-004  4.940501670399100E-004  5.062532061657999E-004 
 5.187576603580900E-004  5.315709745689400E-004  5.447007776407900E-004  5.581548868485200E-004 
 5.719413125536800E-004  5.860682629737500E-004  6.005441490692000E-004  6.153775895512100E-004 
 6.305774160131300E-004  6.461526781886500E-004  6.621126493399100E-004  6.784668317786100E-004 
 6.952249625235400E-004  7.123970190978700E-004  7.299932254695900E-004  7.480240581386900E-004 
 7.665002523747100E-004  7.854328086083700E-004  8.048329989809900E-004  8.247123740558301E-004 
 8.450827696950000E-004  8.659563141064700E-004  8.873454350649000E-004  9.092628673110000E-004 
 9.317216601335900E-004  9.547351851388800E-004  9.783171442118200E-004  1.002481577673800E-003 
 1.027242872642400E-003  1.052615771596700E-003  1.078615381155100E-003  1.105257181069600E-003 
 1.132557033442000E-003  1.160531192168100E-003  1.189196312614600E-003  1.218569461536200E-003 
 1.248668127236100E-003  1.279510229978900E-003  1.311114132659400E-003  1.343498651736000E-003 
 1.376683068433900E-003  1.410687140224200E-003  1.445531112587800E-003  1.481235731068700E-003 
 1.517822253626100E-003  1.555312463290700E-003  1.593728681133900E-003  1.633093779557900E-003 
 1.673431195913000E-003  1.714764946452100E-003  1.757119640629400E-003  1.800520495753000E-003 
 1.844993351998100E-003  1.890564687792400E-003  1.937261635580900E-003  1.985111997979800E-003 
 2.034144264329900E-003  2.084387627658800E-003  2.135872002062000E-003  2.188628040512900E-003 
 2.242687153113600E-003  2.298081525795500E-003  2.354844139482600E-003  2.413008789727900E-003 
 2.472610106834100E-003  2.533683576472900E-003  2.596265560811800E-003  2.660393320163900E-003 
 2.726105035171900E-003  2.793439829540700E-003  2.862437793330300E-003  2.933140006825600E-003 
 3.005588564994200E-003  3.079826602549500E-003  3.155898319632500E-003  3.233849008127400E-003 
 3.313725078628200E-003  3.395574088070300E-003  3.479444768045600E-003  3.565387053816300E-003 
 3.653452114045600E-003  3.743692381262500E-003  3.836161583079700E-003  3.930914774181800E-003 
 4.028008369104100E-003  4.127500175820900E-003  4.229449430163700E-003  4.333916831088800E-003 
 4.440964576816700E-003  4.550656401864000E-003  4.663057614990100E-003  4.778235138080300E-003 
 4.896257545990900E-003  5.017195107376900E-003  5.141119826529100E-003  5.268105486244400E-003 
 5.398227691754600E-003  5.531563915740900E-003  5.668193544459700E-003  5.808197925007900E-003 
 5.951660413755600E-003  6.098666425975300E-003  6.249303486696900E-003  6.403661282818300E-003 
 6.561831716504000E-003  6.723908959901600E-003  6.889989511211200E-003  7.060172252138100E-003 
 7.234558506765900E-003  7.413252101883000E-003  7.596359428799500E-003  7.783989506690900E-003 
 7.976254047506100E-003  8.173267522479500E-003  8.375147230284799E-003  8.582013366872801E-003 
 8.793989097034599E-003  9.011200627731300E-003  9.233777283236299E-003  9.461851582132200E-003 
 9.695559316210901E-003  9.935039631321300E-003  1.018043511021500E-002  1.043189185743700E-002 
 1.068955958631600E-002  1.095359170809800E-002  1.122414542328800E-002  1.150138181524300E-002 
 1.178546594608000E-002  1.207656695494800E-002  1.237485815873500E-002  1.268051715525600E-002 
 1.299372592899100E-002  1.331467095943700E-002  1.364354333213500E-002  1.398053885243900E-002 
 1.432585816209400E-002  1.467970685869700E-002  1.504229561810700E-002  1.541384031987500E-002 
 1.579456217577500E-002  1.618468786151700E-002  1.658444965169700E-002  1.699408555809300E-002 
 1.741383947137800E-002  1.784396130632100E-002  1.828470715058800E-002  1.873633941720700E-002 
 1.919912700081200E-002  1.967334543773200E-002  2.015927707004400E-002  2.065721121367400E-002 
 2.116744433065200E-002  2.169028020561900E-002  2.222603012669800E-002  2.277501307082700E-002 
 2.333755589367700E-002  2.391399352425100E-002  2.450466916430000E-002  2.510993449265800E-002 
 2.573014987462600E-002  2.636568457653000E-002  2.701691698557000E-002  2.768423483511300E-002 
 2.836803543554100E-002  2.906872591079900E-002  2.978672344079500E-002  3.052245550978300E-002 
 3.127636016087500E-002  3.204888625684800E-002  3.284049374739200E-002  3.365165394295300E-002 
 3.448284979534400E-002  3.533457618528900E-002  3.620734021706600E-002  3.710166152042700E-002 
 3.801807255998200E-002  3.895711895221300E-002  3.991935979033300E-002  4.090536797715400E-002 
 4.191573056619000E-002  4.295104911117500E-002  4.401194002422100E-002  4.509903494281900E-002 
 4.621298110590700E-002  4.735444173922200E-002  4.852409645018100E-002  4.972264163250100E-002 
 5.095079088082300E-002  5.220927541558000E-002  5.349884451834500E-002  5.482026597794800E-002 
 5.617432654760300E-002  5.756183241332900E-002  5.898360967393800E-002  6.044050483288400E-002 
 6.193338530225700E-002  6.346313991922201E-002  6.503067947522700E-002  6.663693725826500E-002 
 6.828286960854400E-002  6.996945648787500E-002  7.169770206312601E-002  7.346863530408500E-002 
 7.528331059609600E-002  7.714280836782000E-002  7.904823573450501E-002  8.100072715714700E-002 
 8.300144511792799E-002  8.505158081234100E-002  8.715235485840600E-002  8.930501802340900E-002 
 9.151085196858701E-002  9.377117001221100E-002  9.608731791151300E-002  9.846067466392699E-002 
 1.008926533281300E-001  1.033847018653300E-001  1.059383040014000E-001  1.085549801102400E-001 
 1.112362881189600E-001  1.139838244355000E-001  1.167992248990600E-001  1.196841657540600E-001 
 1.226403646481900E-001  1.256695816550000E-001  1.287736203218800E-001  1.319543287438300E-001 
 1.352136006638000E-001  1.385533766002000E-001  1.419756450022200E-001  1.454824434337800E-001 
 1.490758597865900E-001  1.527580335233200E-001  1.565311569513500E-001  1.603974765280400E-001 
 1.643592941982900E-001  1.684189687649800E-001  1.725789172934800E-001  1.768416165506300E-001 
 1.812096044794300E-001  1.856854817100700E-001  1.902719131083100E-001  1.949716293620800E-001 
 1.997874286073300E-001  2.047221780939300E-001  2.097788158928500E-001  2.149603526454000E-001 
 2.202698733557400E-001  2.257105392276300E-001  2.312855895465500E-001  2.369983436083500E-001 
 2.428522026954800E-001  2.488506521020600E-001  2.549972632089800E-001  2.612956956102400E-001 
 2.677496992918100E-001  2.743631168643200E-001  2.811398858508700E-001  2.880840410313900E-001 
 2.951997168448600E-001  3.024911498509300E-001  3.099626812522500E-001  3.176187594791800E-001 
 3.254639428383100E-001  3.335029022264200E-001  3.417404239114100E-001  3.501814123820200E-001 
 3.588308932678600E-001  3.676940163315800E-001  3.767760585349700E-001  3.860824271807800E-001 
 3.956186631321400E-001  4.053904441115100E-001  4.154035880810600E-001  4.256640567066700E-001 
 4.361779589073200E-001  4.469515544923300E-001  4.579912578882900E-001  4.693036419581300E-001 
 4.808954419145000E-001  4.927735593297900E-001  5.049450662452299E-001  5.174172093814901E-001 
 5.301974144532100E-001  5.432932905902100E-001  5.567126348677800E-001  5.704634369490200E-001 
 5.845538838416600E-001  5.989923647725500E-001  6.137874761824300E-001  6.289480268441400E-001 
 6.444830431071900E-001  6.604017742719300E-001  6.767136980964500E-001  6.934285264394300E-001 
 7.105562110424900E-001  7.281069494552400E-001  7.460911911067800E-001  7.645196435271200E-001 
 7.834032787222400E-001  8.027533397066799E-001  8.225813471974300E-001  8.428991064732100E-001 
 8.637187144031000E-001  8.850525666488500E-001  9.069133650450800E-001  9.293141251616900E-001 
 9.522681840531900E-001  9.757892081993000E-001  9.998912016418200E-001  1.024588514322400E+000 
 1.049895850626100E+000  1.075828278136600E+000  1.102401236606600E+000  1.129630547150800E+000 
 1.157532421665400E+000  1.186123472480500E+000  1.215420722250800E+000  1.245441614090400E+000 
 1.276204021958400E+000  1.307726261300800E+000  1.340027099954900E+000  1.373125769323800E+000 
 1.407041975826100E+000  1.441795912629000E+000  1.477408271670900E+000  1.513900255981200E+000 
 1.551293592303900E+000  1.589610544033900E+000  1.628873924471500E+000  1.669107110405900E+000 
 1.710334056033000E+000  1.752579307217000E+000  1.795868016105200E+000  1.840225956103000E+000 
 1.885679537218800E+000  1.932255821788100E+000  1.979982540586300E+000  2.028888109338700E+000 
 2.079001645639400E+000  2.130352986286700E+000  2.182972705048000E+000  2.236892130862700E+000 
 2.292143366495000E+000  2.348759307647400E+000  2.406773662546300E+000  2.466220972011200E+000 
 2.527136630019800E+000  2.589556904781300E+000  2.653518960329400E+000  2.719060878649600E+000 
 2.786221682352200E+000  2.855041357906300E+000  2.925560879446600E+000  2.997822233168900E+000 
 3.071868442328200E+000  3.147743592853700E+000  3.225492859597200E+000  3.305162533229300E+000 
 3.386800047800000E+000  3.470454008980700E+000  3.556174223002500E+000  3.644011726310700E+000 
 3.734018815950500E+000  3.826249080704500E+000  3.920757432997900E+000  4.017600141593000E+000 
 4.116834865090300E+000  4.218520686258000E+000  4.322718147208600E+000  4.429489285444700E+000 
 4.538897670795100E+000  4.651008443263800E+000  4.765888351812400E+000  4.883605794102200E+000 
 5.004230857216500E+000  5.127835359389700E+000  5.254492892766700E+000  5.384278867218000E+000 
 5.517270555238300E+000  5.653547137952700E+000  5.793189752260100E+000  5.936281539140900E+000 
 6.082907693157700E+000  6.233155513178700E+000  6.387114454354200E+000  6.544876181376800E+000 
 6.706534623056800E+000  6.872186028246300E+000  7.041929023144000E+000  7.215864670015600E+000 
 7.394096527365000E+000  7.576730711590900E+000  7.763875960167200E+000  7.955643696383300E+000 
 8.152148095684000E+000  8.353506153647400E+000  8.559837755642500E+000  8.771265748206901E+000 
 8.987916012187601E+000  9.209917537688600E+000  9.437402500869499E+000  9.670506342641000E+000 
 9.909367849304200E+000  1.015412923518200E+001  1.040493622729100E+001  1.066193815210500E+001 
 1.092528802446200E+001  1.119514263866600E+001  1.147166266184100E+001  1.175501272958900E+001 
 1.204536154401000E+001  1.234288197414700E+001  1.264775115890800E+001  1.296015061253300E+001 
 1.328026633266300E+001  1.360828891108000E+001  1.394441364718300E+001  1.428884066426900E+001 
 1.464177502867600E+001  1.500342687188400E+001  1.537401151562000E+001  1.575374960005600E+001 
 1.614286721517700E+001  1.654159603539200E+001  1.695017345746600E+001  1.736884274186600E+001 
 1.779785315759000E+001  1.823746013058200E+001  1.868792539580700E+001  1.914951715308400E+001 
 1.962251022676500E+001  2.010718622936600E+001  2.060383372923200E+001  2.111274842234400E+001 
 2.163423330837500E+001  2.216859887109200E+001  2.271616326320800E+001  2.327725249581000E+001 
 2.385220063245600E+001  2.444134998807800E+001  2.504505133278300E+001  2.566366410070300E+001 
 2.629755660399000E+001  2.694710625210900E+001  2.761269977653600E+001  2.829473346101600E+001 
 2.899361337750300E+001  2.970975562792800E+001  3.044358659193800E+001  3.119554318075800E+001 
 3.196607309732300E+001  3.275563510282700E+001  3.356469928986700E+001  3.439374736232700E+001 
 3.524327292217600E+001  3.611378176335400E+001  3.700579217290900E+001  3.791983523958000E+001 
 3.885645516999700E+001  3.981620961269600E+001  4.079966999013000E+001  4.180742183888600E+001 
 4.284006515830600E+001  4.389821476771600E+001  4.498250067247900E+001  4.609356843908900E+001 
 4.723207957953500E+001  4.839871194514900E+001  4.959416013019500E+001  5.081913588541000E+001 
 5.207436854178000E+001  5.336060544476200E+001  5.467861239924800E+001  5.602917412550900E+001 
 5.741309472640900E+001  5.883119816615100E+001  6.028432876085500E+001  6.177335168124800E+001 
 6.329915346777500E+001  6.486264255842900E+001  6.646474982962199E+001  6.810642915041400E+001 
 6.978865795042900E+001  7.151243780180501E+001  7.327879501551000E+001  7.508878125239301E+001 
 7.694347414932700E+001
    </PP_R>
    <PP_RAB type="real" size="525" columns="4">
 5.258596298175664E-006  5.388483626740629E-006  5.521579172321071E-006  5.657962177877503E-006 
 5.797713843671042E-006  5.940917375609589E-006  6.087658034787163E-006  6.238023188246408E-006 
 6.392102360996212E-006  6.549987289312784E-006  6.711771975358791E-006  6.877552743150115E-006 
 7.047428295906078E-006  7.221499774814866E-006  7.399870819252684E-006  7.582647628488391E-006 
 7.769939024911910E-006  7.961856518827379E-006  8.158514374842332E-006  8.360029679900913E-006 
 8.566522412994612E-006  8.778115516595358E-006  8.994934969855432E-006  9.217109863610769E-006 
 9.444772477242061E-006  9.678058357429780E-006  9.917106398858281E-006  1.016205892691017E-005 
 1.041306178240495E-005  1.067026440843036E-005  1.093381993931856E-005  1.120388529181969E-005 
 1.148062125852760E-005  1.176419260361329E-005  1.205476816092243E-005  1.235252093449731E-005 
 1.265762820157927E-005  1.297027161815840E-005  1.329063732712685E-005  1.361891606910694E-005 
 1.395530329601392E-005  1.429999928742532E-005  1.465320926982468E-005  1.501514353878937E-005 
 1.538601758419759E-005  1.576605221852717E-005  1.615547370832480E-005  1.655451390892053E-005 
 1.696341040247082E-005  1.738240663941182E-005  1.781175208340535E-005  1.825170235986549E-005 
 1.870251940815403E-005  1.916447163753555E-005  1.963783408698251E-005  2.012288858893121E-005 
 2.061992393707760E-005  2.112923605832350E-005  2.165112818896409E-005  2.218591105523143E-005 
 2.273390305829585E-005  2.329543046383552E-005  2.387082759629250E-005  2.446043703791965E-005 
 2.506460983275766E-005  2.568370569562757E-005  2.631809322630864E-005  2.696815012899770E-005 
 2.763426343718348E-005  2.831682974408393E-005  2.901625543876153E-005  2.973295694809941E-005 
 3.046736098471639E-005  3.121990480104056E-005  3.199103644962677E-005  3.278121504993043E-005 
 3.359091106166422E-005  3.442060656488690E-005  3.527079554704113E-005  3.614198419705258E-005 
 3.703469120671986E-005  3.794944807952670E-005  3.888679944708905E-005  3.984730339343197E-005 
 4.083153178725023E-005  4.184007062239650E-005  4.287352036676806E-005  4.393249631982855E-005 
 4.501762897892833E-005  4.612956441470657E-005  4.726896465575050E-005  4.843650808274879E-005 
 4.963288983239267E-005  5.085882221125158E-005  5.211503511987017E-005  5.340227648733020E-005 
 5.472131271656802E-005  5.607292914066711E-005  5.745793049044039E-005  5.887714137355622E-005 
 6.033140676548112E-005  6.182159251258845E-005  6.334858584764987E-005  6.491329591808800E-005 
 6.651665432726359E-005  6.815961568914831E-005  6.984315819666894E-005  7.156828420412767E-005 
 7.333602082396980E-005  7.514742053832048E-005  7.700356182561767E-005  7.890554980270986E-005 
 8.085451688283809E-005  8.285162344984379E-005  8.489805854905406E-005  8.699504059521505E-005 
 8.914381809791776E-005  9.134567040493569E-005  9.360190846393800E-005  9.591387560299804E-005 
 9.828294833039233E-005  1.007105371541513E-004  1.031980874218594E-004  1.057470801811807E-004 
 1.083590330616560E-004  1.110355011782772E-004  1.137780780573820E-004  1.165883965853980E-004 
 1.194681299810578E-004  1.224189927915905E-004  1.254427419135426E-004  1.285411776388078E-004 
 1.317161447264855E-004  1.349695335012287E-004  1.383032809787091E-004  1.417193720188843E-004 
 1.452198405077509E-004  1.488067705682908E-004  1.524822978013278E-004  1.562486105570203E-004 
 1.601079512377808E-004  1.640626176333528E-004  1.681149642888973E-004  1.722674039068327E-004 
 1.765224087833312E-004  1.808825122802790E-004  1.853503103336017E-004  1.899284629988429E-004 
 1.946196960349128E-004  1.994268025269751E-004  2.043526445493927E-004  2.094001548697619E-004 
 2.145723386950460E-004  2.198722754608124E-004  2.253031206646953E-004  2.308681077451124E-004 
 2.365705500064175E-004  2.424138425915758E-004  2.484014645035893E-004  2.545369806768204E-004 
 2.608240440995453E-004  2.672663979888040E-004  2.738678780191269E-004  2.806324146061941E-004 
 2.875640352469792E-004  2.946668669175753E-004  3.019451385304342E-004  3.094031834521419E-004 
 3.170454420834142E-004  3.248764645028726E-004  3.329009131760912E-004  3.411235657315472E-004 
 3.495493178051105E-004  3.581831859548791E-004  3.670303106479691E-004  3.760959593209924E-004 
 3.853855295161987E-004  3.949045520952574E-004  4.046586945320233E-004  4.146537642869419E-004 
 4.248957122648319E-004  4.353906363577723E-004  4.461447850758306E-004  4.571645612671908E-004 
 4.684565259304901E-004  4.800274021209718E-004  4.918840789533604E-004  5.040336157035062E-004 
 5.164832460113890E-004  5.292403821878677E-004  5.423126196279132E-004  5.557077413327119E-004 
 5.694337225436439E-004  5.834987354904763E-004  5.979111542570909E-004  6.126795597672360E-004 
 6.278127448934709E-004  6.433197196923575E-004  6.592097167687517E-004  6.754921967729257E-004 
 6.921768540332342E-004  7.092736223278585E-004  7.267926807993386E-004  7.447444600150912E-004 
 7.631396481774727E-004  7.819891974874413E-004  8.013043306653776E-004  8.210965476328226E-004 
 8.413776323593549E-004  8.621596598786309E-004  8.834550034776420E-004  9.052763420635268E-004 
 9.276366677125069E-004  9.505492934049923E-004  9.740278609521039E-004  9.980863491176155E-004 
 1.022739081940828E-003  1.048000737264769E-003  1.073886355475208E-003  1.100411348455439E-003 
 1.127591508762298E-003  1.155443019028705E-003  1.183982461598719E-003  1.213226828400220E-003 
 1.243193531061686E-003  1.273900411278927E-003  1.305365751437520E-003  1.337608285498024E-003 
 1.370647210149818E-003  1.404502196240523E-003  1.439193400487659E-003  1.474741477479697E-003 
 1.511167591973464E-003  1.548493431495191E-003  1.586741219253127E-003  1.625933727368677E-003 
 1.666094290434680E-003  1.707246819408415E-003  1.749415815847815E-003  1.792626386499251E-003 
 1.836904258245785E-003  1.882275793424466E-003  1.928768005522047E-003  1.976408575258434E-003 
 2.025225867067305E-003  2.075248945983872E-003  2.126507594949678E-003  2.179032332544944E-003 
 2.232854431158799E-003  2.288005935608419E-003  2.344519682217956E-003  2.402429318368730E-003 
 2.461769322532536E-003  2.522575024798972E-003  2.584882627911418E-003  2.648729228820962E-003 
 2.714152840772768E-003  2.781192415939897E-003  2.849887868613689E-003  2.920280098968282E-003 
 2.992411017412914E-003  3.066323569543005E-003  3.142061761710754E-003  3.219670687225000E-003 
 3.299196553199393E-003  3.380686708063520E-003  3.464189669752568E-003  3.549755154595582E-003 
 3.637434106913986E-003  3.727278729354792E-003  3.819342513969953E-003  3.913680274064807E-003 
 4.010348176834389E-003  4.109403776802008E-003  4.210906050089140E-003  4.314915429526367E-003 
 4.421493840635655E-003  4.530704738499309E-003  4.642613145540272E-003  4.757285690234990E-003 
 4.874790646783955E-003  4.995197975759493E-003  5.118579365760751E-003  5.245008276094958E-003 
 5.374559980514470E-003  5.507311612033257E-003  5.643342208850418E-003  5.782732761409028E-003 
 5.925566260615923E-003  6.071927747253176E-003  6.221904362610308E-003  6.375585400366739E-003 
 6.533062359755725E-003  6.694429000041749E-003  6.859781396342812E-003  7.029217996832564E-003 
 7.202839681354199E-003  7.380749821483695E-003  7.563054342074392E-003  7.749861784323615E-003 
 7.941283370396268E-003  8.137433069645147E-003  8.338427666465319E-003  8.544386829826969E-003 
 8.755433184523794E-003  8.971692384181626E-003  9.193293186070912E-003  9.420367527766772E-003 
 9.653050605702483E-003  9.891480955663483E-003  1.013580053526827E-002  1.038615480848958E-002 
 1.064269283225916E-002  1.090556734521594E-002  1.117493485864276E-002  1.145095574965122E-002 
 1.173379435666771E-002  1.202361907727745E-002  1.232060246848606E-002  1.262492134945773E-002 
 1.293675690678927E-002  1.325629480238710E-002  1.358372528400586E-002  1.391924329852095E-002 
 1.426304860799440E-002  1.461534590861189E-002  1.497634495255455E-002  1.534626067288274E-002 
 1.572531331150294E-002  1.611372855029688E-002  1.651173764548929E-002  1.691957756533282E-002 
 1.733749113119669E-002  1.776572716213726E-002  1.820454062304195E-002  1.865419277643114E-002 
 1.911495133800900E-002  1.958709063605783E-002  2.007089177476834E-002  2.056664280160520E-002 
 2.107463887880489E-002  2.159518245911122E-002  2.212858346585134E-002  2.267515947745779E-002 
 2.323523591655115E-002  2.380914624368987E-002  2.439723215590894E-002  2.499984379016056E-002 
 2.561733993177598E-002  2.625008822809170E-002  2.689846540732620E-002  2.756285750288757E-002 
 2.824366008320829E-002  2.894127848726268E-002  2.965612806589884E-002  3.038863442912667E-002 
 3.113923369952529E-002  3.190837277190424E-002  3.269650957936954E-002  3.350411336598031E-002 
 3.433166496612008E-002  3.517965709078313E-002  3.604859462092459E-002  3.693899490806213E-002 
 3.785138808229039E-002  3.878631736792525E-002  3.974433940691210E-002  4.072602459026170E-002 
 4.173195739764297E-002  4.276273674536439E-002  4.381897634297343E-002  4.490130505864491E-002 
 4.601036729359480E-002  4.714682336574649E-002  4.831134990288126E-002  4.950464024548043E-002 
 5.072740485954463E-002  5.198037175957555E-002  5.326428694203751E-002  5.457991482950619E-002 
 5.592803872579478E-002  5.730946128232126E-002  5.872500497599482E-002  6.017551259890205E-002 
 6.166184776009306E-002  6.318489539976764E-002  6.474556231614194E-002  6.634477770535220E-002 
 6.798349371467330E-002  6.966268600942575E-002  7.138335435385891E-002  7.314652320639847E-002 
 7.495324232959721E-002  7.680458741513810E-002  7.870166072429234E-002  8.064559174418356E-002 
 8.263753786026334E-002  8.467868504541282E-002  8.677024856603395E-002  8.891347370561592E-002 
 9.110963650614282E-002  9.336004452784510E-002  9.566603762768285E-002  9.802898875708789E-002 
 1.004503047793868E-001  1.029314273074369E-001  1.054738335619313E-001  1.080790372509121E-001 
 1.107485894710076E-001  1.134840796309430E-001  1.162871363978269E-001  1.191594286668540E-001 
 1.221026665549247E-001  1.251186024188302E-001  1.282090318985771E-001  1.313757949864711E-001 
 1.346207771226373E-001  1.379459103175668E-001  1.413531743024099E-001  1.448445977076788E-001 
 1.484222592710590E-001  1.520882890750543E-001  1.558448698152078E-001  1.596942380996446E-001 
 1.636386857807057E-001  1.676805613194891E-001  1.718222711840808E-001  1.760662812823262E-001 
 1.804151184300000E-001  1.848713718552207E-001  1.894376947400447E-001  1.941168058001231E-001 
 1.989114909033869E-001  2.038246047287008E-001  2.088590724654999E-001  2.140178915553985E-001 
 2.193041334768166E-001  2.247209455736931E-001  2.302715529293631E-001  2.359592602867189E-001 
 2.417874540158001E-001  2.477596041299900E-001  2.538792663520009E-001  2.601500842308932E-001 
 2.665757913113964E-001  2.731602133567828E-001  2.799072706266941E-001  2.868209802111862E-001 
 2.939054584224062E-001  3.011649232454385E-001  3.086036968495903E-001  3.162262081617746E-001 
 3.240369955033811E-001  3.320407092923200E-001  3.402421148118238E-001  3.486460950476900E-001 
 3.572576535953571E-001  3.660819176391552E-001  3.751241410048536E-001  3.843897072876781E-001 
 3.938841330576743E-001  4.036130711442021E-001  4.135823140014594E-001  4.237977971573099E-001 
 4.342656027470932E-001  4.449919631349349E-001  4.559832646243586E-001  4.672460512605940E-001 
 4.787870287267265E-001  4.906130683362743E-001  5.027312111241964E-001  5.151486720389633E-001 
 5.278728442383037E-001  5.409113034909933E-001  5.542718126872215E-001  5.679623264606144E-001 
 5.819909959241792E-001  5.963661735235146E-001  6.110964180095326E-001  6.261904995343744E-001 
 6.416574048728646E-001  6.575063427732353E-001  6.737467494397320E-001  6.903882941508827E-001 
 7.074408850164070E-001  7.249146748763289E-001  7.428200673457785E-001  7.611677230091981E-001 
 7.799685657675320E-001  7.992337893419930E-001  8.189748639387444E-001  8.392035430780383E-001 
 8.599318705920542E-001  8.811721877956842E-001  9.029371408342414E-001  9.252396882128509E-001 
 9.480931085116929E-001  9.715110082919336E-001  9.955073301967543E-001  1.020096361252609E+000 
 1.045292741375537E+000  1.071111472087509E+000  1.097567925448080E+000  1.124677853206642E+000 
 1.152457396180858E+000  1.180923093866513E+000  1.210091894285036E+000  1.239981164073856E+000 
 1.270608698826490E+000  1.301992733687505E+000  1.334151954209595E+000  1.367105507478562E+000 
 1.400873013513281E+000  1.435474576947051E+000  1.470930798997645E+000  1.507262789732884E+000 
 1.544492180639291E+000  1.582641137501080E+000  1.621732373597352E+000  1.661789163225215E+000 
 1.702835355556872E+000  1.744895388839137E+000  1.787994304943473E+000  1.832157764275575E+000 
 1.877412061053179E+000
    </PP_RAB>
  </PP_MESH>
  <PP_LOCAL type="real" size="525" columns="4">
-1.723670646032940E+001 -1.723670878026000E+001 -1.723671104424760E+001 -1.723671325363940E+001 
-1.723671540975060E+001 -1.723671751386380E+001 -1.723671956723160E+001 -1.723672157107560E+001 
-1.723672352658800E+001 -1.723672543493280E+001 -1.723672729724480E+001 -1.723672911463260E+001 
-1.723673088817680E+001 -1.723673261893260E+001 -1.723673430792980E+001 -1.723673595617260E+001 
-1.723673756464140E+001 -1.723673913429280E+001 -1.723674066606000E+001 -1.723674216085400E+001 
-1.723674361956320E+001 -1.723674504305500E+001 -1.723674643217520E+001 -1.723674778774960E+001 
-1.723674911058360E+001 -1.723675040146300E+001 -1.723675166115480E+001 -1.723675289040700E+001 
-1.723675408994960E+001 -1.723675526049460E+001 -1.723675640273700E+001 -1.723675751735460E+001 
-1.723675860500840E+001 -1.723675966634380E+001 -1.723676070198980E+001 -1.723676171256020E+001 
-1.723676269865380E+001 -1.723676366085480E+001 -1.723676459973280E+001 -1.723676551584320E+001 
-1.723676640972800E+001 -1.723676728191540E+001 -1.723676813292100E+001 -1.723676896324720E+001 
-1.723676977338380E+001 -1.723677056380860E+001 -1.723677133498720E+001 -1.723677208737360E+001 
-1.723677282141040E+001 -1.723677353752880E+001 -1.723677423614920E+001 -1.723677491768080E+001 
-1.723677558252300E+001 -1.723677623106440E+001 -1.723677686368340E+001 -1.723677748074900E+001 
-1.723677808262000E+001 -1.723677866964600E+001 -1.723677924216700E+001 -1.723677980051400E+001 
-1.723678034500900E+001 -1.723678087596500E+001 -1.723678139368640E+001 -1.723678189846920E+001 
-1.723678239060080E+001 -1.723678287036020E+001 -1.723678333801820E+001 -1.723678379383780E+001 
-1.723678423807380E+001 -1.723678467097320E+001 -1.723678509277500E+001 -1.723678550371080E+001 
-1.723678590400400E+001 -1.723678629387060E+001 -1.723678667351940E+001 -1.723678704315100E+001 
-1.723678740295880E+001 -1.723678775312840E+001 -1.723678809383820E+001 -1.723678842525840E+001 
-1.723678874755200E+001 -1.723678906087420E+001 -1.723678936537240E+001 -1.723678966118600E+001 
-1.723678994844660E+001 -1.723679022727720E+001 -1.723679049779320E+001 -1.723679076010080E+001 