<UPF version="2.0.1">
  <PP_INFO>
    Generated using FHI98PP, converted with fhi2upf.x v.5.0.1
    Author: Abinit web site
    Generation date: 10-Jul-2012, PG
    Pseudopotential type: SL
    Element: Db
    Functional: SLA-PW

    Suggested minimum cutoff for wavefunctions:   0. Ry
    Suggested minimum cutoff for charge density:   0. Ry
    The Pseudo was generated with a Non-Relativistic Calculation
    L component and cutoff radius for Local Potential:  0   0.0000

    Valence configuration: 
    nl pn  l   occ       Rcut    Rcut US       E pseu
    7s  7  0  2.00      0.000      0.000     0.000000
    7p  7  1  0.00      0.000      0.000     0.000000
    6d  6  2  3.00      0.000      0.000     0.000000
    5f  5  3 14.00      0.000      0.000     0.000000

    Generation configuration: not available.
    Comment:
    dubnium, fhi98PP : Trouiller-Martins-type, LDA Ceperley/Alder Perdew/Wang (1992)
  </PP_INFO>
  <!--                               -->
  <!-- END OF HUMAN READABLE SECTION -->
  <!--                               -->
  <PP_HEADER generated="Generated using FHI98PP, converted with fhi2upf.x v.5.0.1"
             author="Abinit web site"
             date="10-Jul-2012, PG"
             comment="dubnium, fhi98PP : Trouiller-Martins-type, LDA Ceperley/Alder Perdew/Wang (1992)"
             element="Db"
             pseudo_type="SL"
             relativistic="no"
             is_ultrasoft="F"
             is_paw="F"
             is_coulomb="F"
             has_so="F"
             has_wfc="F"
             has_gipaw="F"
             paw_as_gipaw="F"
             core_correction="T"
             functional="SLA-PW"
             z_valence="1.900000000000000E+001"
             total_psenergy="0.000000000000000E+000"
             wfc_cutoff="0.000000000000000E+000"
             rho_cutoff="0.000000000000000E+000"
             l_max="3"
             l_max_rho="0"
             l_local="0"
             mesh_size="579"
             number_of_wfc="4"
             number_of_proj="3"/>
  <PP_MESH dx="2.439988682353512E-002" mesh="579" xmin="-5.075173815233819E+000" rmax="7.936047264062699E+001"
zmesh="1.050000000000000E+002">
    <PP_R type="real" size="579" columns="4">
 5.952380952381000E-005  6.099404761904800E-005  6.250060059523800E-005  6.404436542994000E-005 
 6.562626125606000E-005  6.724722990908500E-005  6.890823648783899E-005  7.061026992908900E-005 
 7.235434359633700E-005  7.414149588316700E-005  7.597279083148100E-005  7.784931876501800E-005 
 7.977219693851399E-005  8.174257020289600E-005  8.376161168690700E-005  8.583052349557399E-005 
 8.795053742591501E-005  9.012291570033500E-005  9.234895171813300E-005  9.462997082557099E-005 
 9.696733110496201E-005  9.936242418325500E-005  1.018166760605800E-004  1.043315479592800E-004 
 1.069085371938700E-004  1.095491780625600E-004  1.122550427607100E-004  1.150277423169000E-004 
 1.178689275521200E-004  1.207802900626600E-004  1.237635632272100E-004  1.268205232389200E-004 
 1.299529901629200E-004  1.331628290199500E-004  1.364519508967400E-004  1.398223140838900E-004 
 1.432759252417600E-004  1.468148405952300E-004  1.504411671579300E-004  1.541570639867300E-004 
 1.579647434672100E-004  1.618664726308500E-004  1.658645745048300E-004  1.699614294951000E-004 
 1.741594768036300E-004  1.784612158806800E-004  1.828692079129300E-004  1.873860773483800E-004 
 1.920145134588800E-004  1.967572719413200E-004  2.016171765582700E-004  2.065971208192600E-004 
 2.117000697034900E-004  2.169290614251700E-004  2.222872092423700E-004  2.277777033106600E-004 
 2.334038125824300E-004  2.391688867532200E-004  2.450763582560200E-004  2.511297443049400E-004 
 2.573326489892800E-004  2.636887654193100E-004  2.702018779251700E-004  2.768758643099200E-004 
 2.837146981583700E-004  2.907224512028900E-004  2.979032957476000E-004  3.052615071525600E-004 
 3.128014663792300E-004  3.205276625988000E-004  3.284446958649900E-004  3.365572798528500E-004 
 3.448702446652200E-004  3.533885397084500E-004  3.621172366392500E-004  3.710615323842400E-004 
 3.802267522341300E-004  3.896183530143100E-004  3.992419263337700E-004  4.091032019142100E-004 
 4.192080510014900E-004  4.295624898612300E-004  4.401726833608000E-004  4.510449486398100E-004 
 4.621857588712100E-004  4.736017471153300E-004  4.852997102690800E-004  4.972866131127300E-004 
 5.095695924566100E-004  5.221559613902900E-004  5.350532136366300E-004  5.482690280134600E-004 
 5.618112730053899E-004  5.756880114486200E-004  5.899075053314000E-004  6.044782207130900E-004 
 6.194088327647000E-004  6.347082309339900E-004  6.503855242380600E-004  6.664500466867400E-004 
 6.829113628399000E-004  6.997792735020500E-004  7.170638215575500E-004  7.347752979500200E-004 
 7.529242478093800E-004  7.715214767302800E-004  7.905780572055100E-004  8.101053352184900E-004 
 8.301149369983900E-004  8.506187759422500E-004  8.716290597080200E-004  8.931582974828100E-004 
 9.152193074306300E-004  9.378252243241700E-004  9.609895073649800E-004  9.847259481968900E-004 
 1.009048679117400E-003  1.033972181491600E-003  1.059511294374400E-003  1.085681223345400E-003 
 1.112497549562100E-003  1.139976239036300E-003  1.168133652140500E-003  1.196986553348300E-003 
 1.226552121216000E-003  1.256847958610100E-003  1.287892103187700E-003  1.319703038136500E-003 
 1.352299703178400E-003  1.385701505846900E-003  1.419928333041400E-003  1.455000562867500E-003 
 1.490939076770300E-003  1.527765271966500E-003  1.565501074184100E-003  1.604168950716500E-003 
 1.643791923799200E-003  1.684393584317000E-003  1.725998105849600E-003  1.768630259064100E-003 
 1.812315426463000E-003  1.857079617496600E-003  1.902949484048800E-003  1.949952336304800E-003 
 1.998116159011500E-003  2.047469628139100E-003  2.098042127954200E-003  2.149863768514600E-003 
 2.202965403596900E-003  2.257378649065800E-003  2.313135901697700E-003  2.370270358469600E-003 
 2.428816036323800E-003  2.488807792421000E-003  2.550281344893800E-003  2.613273294112700E-003 
 2.677821144477300E-003  2.743963326745900E-003  2.811739220916500E-003  2.881189179673100E-003 
 2.952354552411100E-003  3.025277709855600E-003  3.100002069289100E-003  3.176572120400500E-003 
 3.255033451774400E-003  3.335432778033200E-003  3.417817967650600E-003  3.502238071451600E-003 
 3.588743351816500E-003  3.677385312606300E-003  3.768216729827700E-003  3.861291683054400E-003 
 3.956665587625900E-003  4.054395227640200E-003  4.154538789763000E-003  4.257155897870100E-003 
 4.362307648547500E-003  4.470056647466600E-003  4.580467046659000E-003  4.693604582711500E-003 
 4.809536615904500E-003  4.928332170317300E-003  5.050061974924200E-003  5.174798505704800E-003 
 5.302616028795700E-003  5.433590644707000E-003  5.567800333631200E-003  5.705325001871900E-003 
 5.846246529418200E-003  5.990648818694800E-003  6.138617844516500E-003  6.290241705276100E-003 
 6.445610675396400E-003  6.604817259078700E-003  6.767956245378000E-003  6.935124764638800E-003 
 7.106422346325400E-003  7.281950978279600E-003  7.461815167443100E-003  7.646122002079000E-003 
 7.834981215530300E-003  8.028505251553899E-003  8.226809331267300E-003  8.430011521749600E-003 
 8.638232806336800E-003  8.851597156653301E-003  9.070231606422700E-003  9.294266327101300E-003 
 9.523834705380700E-003  9.759073422603600E-003  1.000012253614200E-002  1.024712556278500E-002 
 1.050022956418500E-002  1.075958523442100E-002  1.102534698971100E-002  1.129767306035700E-002 
 1.157672558494800E-002  1.186267070689600E-002  1.215567867335600E-002  1.245592393658800E-002 
 1.276358525782200E-002  1.307884581369000E-002  1.340189330528800E-002  1.373292006992900E-002 
 1.407212319565600E-002  1.441970463858900E-002  1.477587134316200E-002  1.514083536533800E-002 
 1.551481399886200E-002  1.589802990463400E-002  1.629071124327800E-002  1.669309181098700E-002 
 1.710541117871800E-002  1.752791483483300E-002  1.796085433125300E-002  1.840448743323500E-002 
 1.885907827283600E-002  1.932489750617500E-002  1.980222247457800E-002  2.029133736970000E-002 
 2.079253340273100E-002  2.130610897777900E-002  2.183236986953000E-002  2.237162940530700E-002 
 2.292420865161800E-002  2.349043660531300E-002  2.407065038946500E-002  2.466519545408400E-002 
 2.527442578180000E-002  2.589870409861100E-002  2.653840208984600E-002  2.719390062146600E-002 
 2.786558996681600E-002  2.855387003899600E-002  2.925915062895900E-002  2.998185164949500E-002 
 3.072240338523700E-002  3.148124674885200E-002  3.225883354354900E-002  3.305562673207500E-002 
 3.387210071235700E-002  3.470874159995200E-002  3.556604751747100E-002  3.644452889115300E-002 
 3.734470875476400E-002  3.826712306100700E-002  3.921232100061400E-002  4.018086532932900E-002 
 4.117333270296300E-002  4.219031402072600E-002  4.323241477703800E-002  4.430025542203100E-002 
 4.539447173095500E-002  4.651571518271000E-002  4.766465334772300E-002  4.884197028541200E-002 
 5.004836695146100E-002  5.128456161516200E-002  5.255129028705700E-002  5.384930715714700E-002 
 5.517938504392900E-002  5.654231585451400E-002  5.793891105612000E-002  5.937000215920600E-002 
 6.083644121253900E-002  6.233910131048800E-002  6.387887711285700E-002  6.545668537754500E-002 
 6.707346550637000E-002  6.873018010437799E-002  7.042781555295601E-002  7.216738259711400E-002 
 7.394991694726299E-002  7.577647989586000E-002  7.764815894928800E-002  7.956606847533500E-002 
 8.153135036667600E-002  8.354517472073300E-002  8.560874053633501E-002  8.772327642758200E-002 
 8.989004135534399E-002  9.211032537682100E-002  9.438545041362800E-002  9.671677103884500E-002 
 9.910567528350400E-002  1.015535854630100E-001  1.040619590239400E-001  1.066322894118300E-001 
 1.092661069603100E-001  1.119649798022300E-001  1.147305148033400E-001  1.175643585189800E-001 
 1.204681981744000E-001  1.234437626693100E-001  1.264928236072400E-001  1.296171963503400E-001 
 1.328187411001900E-001  1.360993640053700E-001  1.394610182963000E-001  1.429057054482200E-001 
 1.464354763727900E-001  1.500524326392000E-001  1.537587277253900E-001  1.575565683002000E-001 
 1.614482155372200E-001  1.654359864609900E-001  1.695222553265800E-001  1.737094550331400E-001 
 1.780000785724600E-001  1.823966805132000E-001  1.869018785218800E-001  1.915183549213700E-001 
 1.962488582879200E-001  2.010962050876400E-001  2.060632813533000E-001  2.111530444027300E-001 
 2.163685245994700E-001  2.217128271570800E-001  2.271891339878600E-001  2.328007055973600E-001 
 2.385508830256200E-001  2.444430898363500E-001  2.504808341553100E-001  2.566677107589400E-001 
 2.630074032146900E-001  2.695036860740900E-001  2.761604271201200E-001  2.829815896699900E-001 
 2.899712349348400E-001  2.971335244377300E-001  3.044727224913400E-001  3.119931987368800E-001 
 3.196994307456800E-001  3.275960066851000E-001  3.356876280502200E-001  3.439791124630600E-001 
 3.524753965408900E-001  3.611815388354600E-001  3.701027228446900E-001  3.792442600989500E-001 
 3.886115933234000E-001  3.982102996784900E-001  4.080460940805500E-001  4.181248326043300E-001 
 4.284525159696600E-001  4.390352931141100E-001  4.498794648540300E-001  4.609914876359300E-001 
 4.723779773805300E-001  4.840457134218300E-001  4.960016425433500E-001  5.082528831141701E-001 
 5.208067293270900E-001  5.336706555414700E-001  5.468523207333500E-001  5.603595730554600E-001 
 5.742004545099300E-001  5.883832057363200E-001  6.029162709180100E-001  6.178083028096900E-001 
 6.330681678890900E-001  6.487049516359500E-001  6.647279639413500E-001  6.811467446507000E-001 
 6.979710692435800E-001  7.152109546538900E-001  7.328766652338400E-001  7.509787188651200E-001 
 7.695278932210901E-001  7.885352321836500E-001  8.080120524185900E-001  8.279699501133300E-001 
 8.484208078811200E-001  8.693768018357900E-001  8.908504088411300E-001  9.128544139395099E-001 
 9.354019179638100E-001  9.585063453375200E-001  9.821814520673600E-001  1.006441333933400E+000 
 1.031300434881600E+000  1.056773555623200E+000  1.082875862447000E+000  1.109622896249500E+000 
 1.137030581786800E+000  1.165115237157000E+000  1.193893583514800E+000  1.223382755027600E+000 
 1.253600309076800E+000  1.284564236710900E+000  1.316292973357700E+000  1.348805409799600E+000 
 1.382120903421700E+000  1.416259289736200E+000  1.451240894192700E+000  1.487086544279300E+000 
 1.523817581923000E+000  1.561455876196500E+000  1.600023836338500E+000  1.639544425096100E+000 
 1.680041172395900E+000  1.721538189354100E+000  1.764060182631200E+000  1.807632469142200E+000 
 1.852280991130000E+000  1.898032331610900E+000  1.944913730201700E+000  1.992953099337600E+000 
 2.042179040891300E+000  2.092620863201300E+000  2.144308598522400E+000  2.197273020905900E+000 
 2.251545664522200E+000  2.307158842435900E+000  2.364145665844100E+000  2.422540063790500E+000 
 2.482376803366100E+000  2.543691510409200E+000  2.606520690716300E+000  2.670901751777000E+000 
 2.736873025045900E+000  2.804473788764600E+000  2.873744291347000E+000  2.944725775343300E+000 
 3.017460501994300E+000  3.091991776393600E+000  3.168363973270500E+000  3.246622563410300E+000 
 3.326814140726500E+000  3.408986450002400E+000  3.493188415317500E+000  3.579470169175800E+000 
 3.667883082354500E+000  3.758479794488600E+000  3.851314245412500E+000  3.946441707274200E+000 
 4.043918817443900E+000  4.143803612234700E+000  4.246155561456900E+000  4.351035603824900E+000 
 4.458506183239400E+000  4.568631285965400E+000  4.681476478728700E+000  4.797108947753300E+000 
 4.915597538762800E+000  5.037012797970300E+000  5.161427014080200E+000  5.288914261327900E+000 
 5.419550443582700E+000  5.553413339539200E+000  5.690582649025800E+000  5.831140040456800E+000 
 5.975169199456100E+000  6.122755878682600E+000  6.273987948886100E+000  6.428955451223600E+000 
 6.587750650868800E+000  6.750468091945300E+000  6.917204653816300E+000  7.088059608765600E+000 
 7.263134681102100E+000  7.442534107725300E+000  7.626364700186100E+000  7.814735908280700E+000 
 8.007759885215201E+000  8.205551554380101E+000  8.408228677773200E+000  8.615911926114199E+000 
 8.828724950689301E+000  9.046794456971300E+000  9.270250280058500E+000  9.499225461975900E+000 
 9.733856330886701E+000  9.974282582259599E+000  1.022064736204100E+001  1.047309735188400E+001 
 1.073178285647500E+001  1.099685789303000E+001  1.126848028298800E+001  1.154681174597800E+001 
 1.183201799610400E+001  1.212426884060700E+001  1.242373828097000E+001  1.273060461651000E+001 
 1.304505055053800E+001  1.336726329913600E+001  1.369743470262500E+001  1.403576133978000E+001 
 1.438244464487300E+001  1.473769102760100E+001  1.510171199598300E+001  1.547472428228300E+001 
 1.585694997205600E+001  1.624861663636600E+001  1.664995746728400E+001  1.706121141672600E+001 
 1.748262333871900E+001  1.791444413518500E+001  1.835693090532400E+001  1.881034709868600E+001 
 1.927496267202300E+001  1.975105425002200E+001  2.023890528999800E+001  2.073880625066100E+001 
 2.125105476505200E+001  2.177595581774900E+001  2.231382192644700E+001  2.286497332803100E+001 
 2.342973816923300E+001  2.400845270201300E+001  2.460146148375300E+001  2.520911758240100E+001 
 2.583178278668700E+001  2.646982782151800E+001  2.712363256870900E+001  2.779358629315600E+001 
 2.848008787459700E+001  2.918354604510000E+001  2.990437963241400E+001  3.064301780933500E+001 
 3.139990034922500E+001  3.217547788785100E+001  3.297021219168100E+001  3.378457643281500E+001 
 3.461905547070600E+001  3.547414614083200E+001  3.635035755051100E+001  3.724821138200900E+001 
 3.816824220314400E+001  3.911099778556200E+001  4.007703943086500E+001  4.106694230480800E+001 
 4.208129577973600E+001  4.312070378549600E+001  4.418578516899800E+001  4.527717406267200E+001 
 4.639552026202000E+001  4.754148961249200E+001  4.871576440592000E+001  4.991904378674600E+001 
 5.115204416827900E+001  5.241549965923600E+001  5.371016250081900E+001  5.503680351458900E+001 
 5.639621256139900E+001  5.778919901166600E+001  5.921659222725400E+001  6.067924205526700E+001 
 6.217801933403200E+001  6.371381641158300E+001  6.528754767694900E+001  6.690015010457000E+001 
 6.855258381215199E+001  7.024583263231300E+001  7.198090469833100E+001  7.375883304437900E+001 
 7.558067622057600E+001  7.744751892322400E+001  7.936047264062699E+001
    </PP_R>
    <PP_RAB type="real" size="579" columns="4">
 1.452374215686626E-006  1.488247858814083E-006  1.525007580926779E-006  1.562675268175661E-006 
 1.601273347299612E-006  1.640824798977920E-006  1.681353171512665E-006  1.722882594849037E-006 
 1.765437794941796E-006  1.809044108476870E-006  1.853727497956243E-006  1.899514567155748E-006 
 1.946432576964496E-006  1.994509461615537E-006  2.043773845317428E-006  2.094255059296778E-006 
 2.145983159261416E-006  2.198988943295170E-006  2.253303970194554E-006  2.308960578258363E-006 
 2.365991904541330E-006  2.424431904583511E-006  2.484315372626690E-006  2.545677962330659E-006 
 2.608556208000123E-006  2.672987546337760E-006  2.739010338732420E-006  2.806663894099122E-006 
 2.875988492283188E-006  2.947025408042648E-006  3.019816935621357E-006  3.094406413931154E-006 
 3.170838252355221E-006  3.249157957188538E-006  3.329412158731028E-006  3.411648639051697E-006 
 3.495916360436223E-006  3.582265494538962E-006  3.670747452254021E-006  3.761414914324674E-006 
 3.854321862708682E-006  3.949523612717585E-006  4.047076845951661E-006  4.147039644046684E-006 
 4.249471523254663E-006  4.354433469879060E-006  4.461987976585005E-006  4.572199079606670E-006 
 4.685132396872833E-006  4.800855167075730E-006  4.919436289702486E-006  5.040946366058156E-006 
 5.165457741299652E-006  5.293044547509847E-006  5.423782747833298E-006  5.557750181704865E-006 
 5.695026611192895E-006  5.835693768489456E-006  5.979835404571036E-006  6.127537339063850E-006 
 6.278887511338921E-006  6.433976032868866E-006  6.592895240880800E-006  6.755739753330516E-006 
 6.922606525237657E-006  7.093594906411228E-006  7.268806700599551E-006  7.448346226104221E-006 
 7.632320377889039E-006  7.820838691222972E-006  8.014013406896170E-006  8.211959538046377E-006 
 8.414794938636235E-006  8.622640373620528E-006  8.835619590848985E-006  9.053859394742969E-006 
 9.277489721793102E-006  9.506643717921318E-006  9.741457817754134E-006  9.982071825852561E-006 
 1.022862899995109E-005  1.048127613624997E-005  1.074016365681528E-005  1.100544569913857E-005 
 1.127728020790722E-005  1.155582902904255E-005  1.184125800605994E-005  1.213373707880971E-005 
 1.243344038465620E-005  1.274054636215725E-005  1.305523785730253E-005  1.337770223237803E-005 
 1.370813147751771E-005  1.404672232501232E-005  1.439367636644010E-005  1.474920017269128E-005 
 1.511350541695667E-005  1.548680900075555E-005  1.586933318307422E-005  1.626130571269615E-005 
 1.666295996379969E-005  1.707453507490565E-005  1.749627609125580E-005  1.792843411070979E-005 
 1.837126643324418E-005  1.882503671414552E-005  1.929001512098472E-005  1.976647849447314E-005 
 2.025471051328670E-005  2.075500186296488E-005  2.126765040898002E-005  2.179296137408188E-005 
 2.233124752002157E-005  2.288282933376618E-005  2.344803521831028E-005  2.402720168820243E-005 
 2.462067356990216E-005  2.522880420707875E-005  2.585195567099256E-005  2.649049897606491E-005 
 2.714481430077540E-005  2.781529121400494E-005  2.850232890699095E-005  2.920633643099191E-005 
 2.992773294083733E-005  3.066694794447759E-005  3.142442155870450E-005  3.220060477120605E-005 
 3.299595970905310E-005  3.381095991386655E-005  3.464609062374104E-005  3.550184906214690E-005 
 3.637874473398126E-005  3.727729972890995E-005  3.819804903221470E-005  3.914154084331170E-005 
 4.010833690214155E-005  4.109901282362346E-005  4.211415844036623E-005  4.315437815384364E-005 
 4.422029129424399E-005  4.531253248921094E-005  4.643175204169527E-005  4.757861631712502E-005 
 4.875380814015730E-005  4.995802720121958E-005  5.119199047309127E-005  5.245643263777495E-005 
 5.375210652392774E-005  5.507978355507012E-005  5.644025420887974E-005  5.783432848783826E-005 
 5.926283640148789E-005  6.072662846060469E-005  6.222657618358165E-005  6.376357261531669E-005 
 6.533853285891540E-005  6.695239462053089E-005  6.860611876765741E-005  7.030068990121763E-005 
 7.203711694177953E-005  7.381643373024016E-005  7.563969964337873E-005  7.750800022456917E-005 
 7.942244783011622E-005  8.138418229151942E-005  8.339437159411946E-005  8.545421257249494E-005 
 8.756493162303668E-005  8.972778543412403E-005  9.194406173434751E-005  9.421508005918480E-005 
 9.654219253664804E-005  9.892678469230179E-005  1.013702762742038E-004  1.038741220981755E-004 
 1.064398129140006E-004  1.090688762929759E-004  1.117628775374118E-004  1.145234206125864E-004 
 1.173521491017179E-004  1.202507471845293E-004  1.232209406399888E-004  1.262644978737958E-004 
 1.293832309712783E-004  1.325789967762700E-004  1.358536979966424E-004  1.392092843371597E-004 
 1.426477536602890E-004  1.461711531756975E-004  1.497815806591357E-004  1.534811857014174E-004 
 1.572721709882420E-004  1.611567936116517E-004  1.651373664138609E-004  1.692162593642824E-004 
 1.733959009705807E-004  1.776787797245531E-004  1.820674455837494E-004  1.865645114896694E-004 
 1.911726549234630E-004  1.958946195000725E-004  2.007332166017248E-004  2.056913270517873E-004 
 2.107719028299661E-004  2.159779688298658E-004  2.213126246599650E-004  2.267790464890652E-004 
 2.323804889373450E-004  2.381202870140974E-004  2.440018581033478E-004  2.500287039985076E-004 
 2.562044129872515E-004  2.625326619880520E-004  2.690172187391520E-004  2.756619440420125E-004 
 2.824707940598546E-004  2.894478226731278E-004  2.965971838931459E-004  3.039231343353093E-004 
 3.114300357533981E-004  3.191223576365021E-004  3.270046798701202E-004  3.350816954629216E-004 
 3.433582133408498E-004  3.518391612103760E-004  3.605295884922687E-004  3.694346693280252E-004 
 3.785597056604312E-004  3.879101303902465E-004  3.974915106108744E-004  4.073095509229637E-004 
 4.173700968307517E-004  4.276791382224875E-004  4.382428129365738E-004  4.490674104161084E-004 
 4.601593754533887E-004  4.715253120270861E-004  4.831719872341668E-004  4.951063353188488E-004 
 5.073354618012100E-004  5.198666477077132E-004  5.327073539060903E-004  5.458652255475612E-004 
 5.593480966185839E-004  5.731639946050638E-004  5.873211452718276E-004  6.018279775600226E-004 
 6.166931286057582E-004  6.319254488823335E-004  6.475340074697104E-004  6.635280974542318E-004 
 6.799172414613462E-004  6.967111973254327E-004  7.139199638993661E-004  7.315537870076977E-004 
 7.496231655467751E-004  7.681388577357718E-004  7.871118875218540E-004  8.065535511436522E-004 
 8.264754238568942E-004  8.468893668261541E-004  8.678075341867647E-004  8.892423802811892E-004 
 9.112066670741227E-004  9.337134717508617E-004  9.567761945031111E-004  9.804085665073338E-004 
 1.004624658100055E-003  1.029438887155121E-003  1.054866027667855E-003  1.080921218551254E-003 
 1.107619972649466E-003  1.134978185973918E-003  1.163012147167476E-003  1.191738547202518E-003 
 1.221174489318404E-003  1.251337499204566E-003  1.282245535434931E-003  1.313917000160167E-003 
 1.346370750064134E-003  1.379626107590717E-003  1.413702872448196E-003  1.448621333397662E-003 
 1.484402280332599E-003  1.521067016656797E-003  1.558637371968219E-003  1.597135715055844E-003 
 1.636584967217715E-003  1.677008615908008E-003  1.718430728720933E-003  1.760875967720340E-003 
 1.804369604123039E-003  1.848937533344869E-003  1.894606290418493E-003  1.941403065791820E-003 
 1.989355721516883E-003  2.038492807838352E-003  2.088843580191957E-003  2.140438016622687E-003 
 2.193306835633285E-003  2.247481514473427E-003  2.302994307880910E-003  2.359878267285578E-003 
 2.418167260487520E-003  2.477895991821646E-003  2.539100022819485E-003  2.601815793383094E-003 
 2.666080643479847E-003  2.731932835373808E-003  2.799411576407417E-003  2.868557042344619E-003 
 2.939410401290561E-003  3.012013838202494E-003  3.086410580006048E-003  3.162644921332225E-003 
 3.240762250889049E-003  3.320809078486138E-003  3.402833062724681E-003  3.486883039374015E-003 
 3.573009050446527E-003  3.661262373992608E-003  3.751695554630268E-003  3.844362434829462E-003 
 3.939318186969873E-003  4.036619346188044E-003  4.136323844038976E-003  4.238491042986579E-003 
 4.343181771748383E-003  4.450458361510573E-003  4.560384683039982E-003  4.673026184711059E-003 
 4.788449931473230E-003  4.906724644780824E-003  5.027920743506795E-003  5.152110385871498E-003 
 5.279367512402343E-003  5.409767889958756E-003  5.543389156840740E-003  5.680310869014703E-003 
 5.820614547479493E-003  5.964383726802168E-003  6.111704004854234E-003  6.262663093773984E-003 
 6.417350872190304E-003  6.575859438733333E-003  6.738283166870048E-003  6.904718761091811E-003 
 7.075265314490810E-003  7.250024367758719E-003  7.429099969642312E-003  7.612598738892572E-003 
 7.800629927743197E-003  7.993305486958495E-003  8.190740132486322E-003  8.393051413758724E-003 
 8.600359783678379E-003  8.812788670335478E-003  9.030464550492622E-003  9.253517024889697E-003 
 9.482078895404616E-003  9.716286244121160E-003  9.956278514350984E-003  1.020219859365522E-002 
 1.045419289891858E-002  1.071241146352185E-002  1.097700802667088E-002  1.124814012492978E-002 
 1.152596918601537E-002  1.181066062490997E-002  1.210238394234526E-002  1.240131282572117E-002 
 1.270762525251649E-002  1.302150359625366E-002  1.334313473508127E-002  1.367271016303769E-002 
 1.401042610406472E-002  1.435648362883499E-002  1.471108877446728E-002  1.507445266719675E-002 
 1.544679164807653E-002  1.582832740178401E-002  1.621928708860788E-002  1.661990347969646E-002 
 1.703041509564515E-002  1.745106634850743E-002  1.788210768731553E-002  1.832379574719233E-002 
 1.877639350214802E-002  1.924017042165105E-002  1.971540263106592E-002  2.020237307605327E-002 
 2.070137169103156E-002  2.121269557180020E-002  2.173664915242356E-002  2.227354438648852E-002 
 2.282370093283465E-002  2.338744634587576E-002  2.396511627061897E-002  2.455705464250268E-002 
 2.516361389217359E-002  2.578515515531088E-002  2.642204848764479E-002  2.707467308529106E-002 
 2.774341751049621E-002  2.842867992300708E-002  2.913086831710589E-002  2.985040076453803E-002 
 3.058770566342257E-002  3.134322199330674E-002  3.211739957654241E-002  3.291069934608215E-002 
 3.372359361993160E-002  3.455656638234351E-002  3.541011357198778E-002  3.628474337721687E-002 
 3.718097653863416E-002  3.809934665913847E-002  3.904040052161788E-002  4.000469841450280E-002 
 4.099281446533921E-002  4.200533698263362E-002  4.304286880610597E-002  4.410602766561703E-002 
 4.519544654895746E-002  4.631177407871644E-002  4.745567489846100E-002  4.862783006845098E-002 
 4.982893747114323E-002  5.105971222668009E-002  5.232088711867978E-002  5.361321303051109E-002 
 5.493745939236286E-002  5.629441463935426E-002  5.768488668094712E-002  5.910970338196776E-002 
 6.056971305550173E-002  6.206578496797159E-002  6.359880985668030E-002  6.516970046014049E-002 
 6.677939206150617E-002  6.842884304542698E-002  7.011903546864694E-002  7.185097564472323E-002 
 7.362569474314840E-002  7.544424940330514E-002  7.730772236356626E-002  7.921722310594680E-002 
 8.117388851666284E-002  8.317888356302333E-002  8.523340198703100E-002  8.733866701610964E-002 
 8.949593209140895E-002  9.170648161406539E-002  9.397163170993357E-002  9.629273101316921E-002 
 9.867116146919513E-002  1.011083391574827E-001  1.036057151346726E-001  1.061647762984994E-001 
 1.087870462730729E-001  1.114740863160175E-001  1.142274962480220E-001  1.170489154053482E-001 
 1.199400236158601E-001  1.229025421991733E-001  1.259382349914937E-001  1.290489093957816E-001 
 1.322364174578574E-001  1.355026569690667E-001  1.388495725962022E-001  1.422791570393299E-001 
 1.457934522182018E-001  1.493945504879898E-001  1.530845958850441E-001  1.568657854034050E-001 
 1.607403703028686E-001  1.647106574493504E-001  1.687790106883482E-001  1.729478522523513E-001 
 1.772196642029841E-001  1.815969899087973E-001  1.860824355595442E-001  1.906786717178650E-001 
 1.953884349092955E-001  2.002145292515572E-001  2.051598281240684E-001  2.102272758787330E-001 
 2.154198895929396E-001  2.207407608658846E-001  2.261930576592722E-001  2.317800261834551E-001 
 2.375049928301863E-001  2.433713661530919E-001  2.493826388970632E-001  2.555423900778350E-001 
 2.618542871127444E-001  2.683220880044309E-001  2.749496435781442E-001  2.817408997745292E-001 
 2.886998999989684E-001  2.958307875289242E-001  3.031378079808887E-001  3.106253118380177E-001 
 3.182977570404217E-001  3.261597116393131E-001  3.342158565168125E-001  3.424709881727817E-001 
 3.509300215806600E-001  3.595979931136934E-001  3.684800635436079E-001  3.775815211131160E-001 
 3.869077846846248E-001  3.964644069663403E-001  4.062570778184031E-001  4.162916276405197E-001 
 4.265740308432374E-001  4.371104094050565E-001  4.479070365173597E-001  4.589703403193507E-001 
 4.703069077252253E-001  4.819234883460392E-001  4.938269985081975E-001  5.060245253713511E-001 
 5.185233311480155E-001  5.313308574273768E-001  5.444547296058233E-001  5.579027614271056E-001 
 5.716829596343462E-001  5.858035287373131E-001  6.002728758971316E-001  6.150996159317736E-001 
 6.302925764453055E-001  6.458608030835004E-001  6.618135649196508E-001  6.781603599731635E-001 
 6.949109208645017E-001  7.120752206098661E-001  7.296634785589304E-001  7.476861664793452E-001 
 7.661540147913709E-001  7.850780189567214E-001  8.044694460249543E-001  8.243398413417580E-001 
 8.447010354229109E-001  8.655651509978459E-001  8.869446102275037E-001  9.088521421001324E-001 
 9.313007900099903E-001  9.543039195232456E-001  9.778752263354604E-001  1.002028744425962E+000 
 1.026778854413265E+000  1.052140292117285E+000  1.078128157332588E+000  1.104757922818697E+000 
 1.132045443512319E+000  1.160006965967075E+000  1.188659138026449E+000  1.218019018735697E+000 
 1.248104088498477E+000  1.278932259484402E+000  1.310521886293664E+000  1.342891776885112E+000 