<UPF version="2.0.1">
  <PP_INFO>
    Generated using FHI98PP, converted with fhi2upf.x v.5.0.1
    Author: Abinit web site
    Generation date: 10-Jul-2012, PG
    Pseudopotential type: SL
    Element: Er
    Functional: SLA-PW

    Suggested minimum cutoff for wavefunctions:   0. Ry
    Suggested minimum cutoff for charge density:   0. Ry
    The Pseudo was generated with a Non-Relativistic Calculation
    L component and cutoff radius for Local Potential:  0   0.0000

    Valence configuration: 
    nl pn  l   occ       Rcut    Rcut US       E pseu
    6s  6  0  2.00      0.000      0.000     0.000000
    6p  6  1  0.00      0.000      0.000     0.000000
    5d  5  2  0.00      0.000      0.000     0.000000
    4f  4  3 12.00      0.000      0.000     0.000000

    Generation configuration: not available.
    Comment:
    erbium, fhi98PP : Trouiller-Martins-type, LDA Ceperley/Alder Perdew/Wang (1992),
  </PP_INFO>
  <!--                               -->
  <!-- END OF HUMAN READABLE SECTION -->
  <!--                               -->
  <PP_HEADER generated="Generated using FHI98PP, converted with fhi2upf.x v.5.0.1"
             author="Abinit web site"
             date="10-Jul-2012, PG"
             comment="erbium, fhi98PP : Trouiller-Martins-type, LDA Ceperley/Alder Perdew/Wang (1992),"
             element="Er"
             pseudo_type="SL"
             relativistic="no"
             is_ultrasoft="F"
             is_paw="F"
             is_coulomb="F"
             has_so="F"
             has_wfc="F"
             has_gipaw="F"
             paw_as_gipaw="F"
             core_correction="F"
             functional="SLA-PW"
             z_valence="1.400000000000000E+001"
             total_psenergy="0.000000000000000E+000"
             wfc_cutoff="0.000000000000000E+000"
             rho_cutoff="0.000000000000000E+000"
             l_max="3"
             l_max_rho="0"
             l_local="0"
             mesh_size="561"
             number_of_wfc="4"
             number_of_proj="3"/>
  <PP_MESH dx="2.439988682353512E-002" mesh="561" xmin="-5.075173815233831E+000" rmax="7.898477408337200E+001"
zmesh="6.800000000000000E+001">
    <PP_R type="real" size="561" columns="4">
 9.191176470588200E-005  9.418198529411799E-005  9.650828033088199E-005  9.889203485505500E-005 
 1.013346681159800E-004  1.038376344184400E-004  1.064024239885800E-004  1.090305638610900E-004 
 1.117236187884600E-004  1.144831921725400E-004  1.173109270192000E-004  1.202085069165700E-004 
 1.231776570374100E-004  1.262201451662400E-004  1.293377827518400E-004  1.325324259858100E-004 
 1.358059769076600E-004  1.391603845372800E-004  1.425976460353500E-004  1.461198078924300E-004 
 1.497289671473700E-004  1.534272726359100E-004  1.572169262700200E-004  1.611001843488800E-004 
 1.650793589023000E-004  1.691568190671900E-004  1.733349924981500E-004  1.776163668128500E-004 
 1.820034910731300E-004  1.864989773026400E-004  1.911055020420100E-004  1.958258079424500E-004 
 2.006627053986300E-004  2.056190742219700E-004  2.106978653552600E-004  2.159021026295300E-004 
 2.212348845644800E-004  2.266993862132200E-004  2.322988610526900E-004  2.380366429206900E-004 
 2.439161480008300E-004  2.499408768564500E-004  2.561144165148100E-004  2.624404426027200E-004 
 2.689227215350100E-004  2.755651127569300E-004  2.823715710420200E-004  2.893461488467600E-004 
 2.964929987232700E-004  3.038163757917400E-004  3.113206402738000E-004  3.190102600885600E-004 
 3.268898135127500E-004  3.349639919065100E-004  3.432376025066000E-004  3.517155712885100E-004 
 3.604029458993400E-004  3.693048986630500E-004  3.784267296600300E-004  3.877738698826300E-004 
 3.973518844687400E-004  4.071664760151100E-004  4.172234879726900E-004  4.275289081256100E-004 
 4.380888721563100E-004  4.489096672985700E-004  4.599977360808500E-004  4.713596801620500E-004 
 4.830022642620500E-004  4.949324201893200E-004  5.071572509680000E-004  5.196840350669100E-004 
 5.325202307330600E-004  5.456734804321699E-004  5.591516153988400E-004  5.729626602991900E-004 
 5.871148380085800E-004  6.016165745073900E-004  6.164765038977300E-004  6.317034735440000E-004 
 6.473065493405400E-004  6.632950211092500E-004  6.796784081306500E-004  6.964664648114700E-004 
 7.136691864923200E-004  7.312968153986800E-004  7.493598467390201E-004  7.678690349534800E-004 
 7.868354001168300E-004  8.062702344997200E-004  8.261851092918600E-004  8.465918814913700E-004 
 8.675027009642000E-004  8.889300176780200E-004  9.108865891146700E-004  9.333854878658000E-004 
 9.564401094160800E-004  9.800641801186599E-004  1.004271765367600E-003  1.029077277972200E-003 
 1.054495486738100E-003  1.080541525260500E-003  1.107230900934400E-003  1.134579504187500E-003 
 1.162603617941000E-003  1.191319927304100E-003  1.220745529508500E-003  1.250897944087400E-003 
 1.281795123306300E-003  1.313455462852000E-003  1.345897812784400E-003  1.379141488760200E-003 
 1.413206283532600E-003  1.448112478735900E-003  1.483880856960600E-003  1.520532714127600E-003 
 1.558089872166500E-003  1.596574692009000E-003  1.636010086901600E-003  1.676419536048100E-003 
 1.717827098588500E-003  1.760257427923600E-003  1.803735786393300E-003  1.848288060317300E-003 
 1.893940775407100E-003  1.940721112559700E-003  1.988656924039900E-003  2.037776750063700E-003 
 2.088109835790200E-003  2.139686148734300E-003  2.192536396608000E-003  2.246692045604200E-003 
 2.302185339130600E-003  2.359049317007200E-003  2.417317835137200E-003  2.477025585665100E-003 
 2.538208117631100E-003  2.600901858136500E-003  2.665144134032500E-003  2.730973194143100E-003 
 2.798428232038500E-003  2.867549409369800E-003  2.938377879781200E-003  3.010955813411800E-003 
 3.085326422003100E-003  3.161533984626600E-003  3.239623874046900E-003  3.319642583735800E-003 
 3.401637755554100E-003  3.485658208116300E-003  3.571753965856700E-003  3.659976288813400E-003 
 3.750377703147100E-003  3.843012032414800E-003  3.937934429615500E-003  4.035201410027000E-003 
 4.134870884854600E-003  4.237002195710600E-003  4.341656149944600E-003  4.448895056848200E-003 
 4.558782764752400E-003  4.671384699041800E-003  4.786767901108100E-003  4.905001068265500E-003 
 5.026154594651600E-003  5.150300613139500E-003  5.277513038284100E-003  5.407867610329700E-003 
 5.541441940304800E-003  5.678315556230400E-003  5.818569950469200E-003  5.962288628245800E-003 
 6.109557157363500E-003  6.260463219150400E-003  6.415096660663400E-003  6.573549548181800E-003 
 6.735916222021900E-003  6.902293352705800E-003  7.072779998517700E-003  7.247477664481000E-003 
 7.426490362793700E-003  7.609924674754700E-003  7.797889814221200E-003  7.990497692632400E-003 
 8.187862985640500E-003  8.390103201385800E-003  8.597338750459999E-003  8.809693017596400E-003 
 9.027292435131000E-003  9.250266558278699E-003  9.478748142268199E-003  9.712873221382199E-003 
 9.952781189950400E-003  1.019861488534200E-002  1.045052067301000E-002  1.070864853363300E-002 
 1.097315215241400E-002  1.124418901057900E-002  1.152192047914000E-002  1.180651191497500E-002 
 1.209813275927500E-002  1.239695663842900E-002  1.270316146739800E-002  1.301692955564300E-002 
 1.333844771566700E-002  1.366790737424400E-002  1.400550468638800E-002  1.435144065214200E-002 
 1.470592123625000E-002  1.506915749078500E-002  1.544136568080700E-002  1.582276741312300E-002 
 1.621358976822700E-002  1.661406543550300E-002  1.702443285176000E-002  1.744493634319800E-002 
 1.787582627087500E-002  1.831735917976600E-002  1.876979795150600E-002  1.923341196090800E-002 
 1.970847723634200E-002  2.019527662408000E-002  2.069409995669500E-002  2.120524422562500E-002 
 2.172901375799800E-002  2.226572039782100E-002  2.281568369164700E-002  2.337923107883100E-002 
 2.395669808647800E-002  2.454842852921400E-002  2.515477471388500E-002  2.577609764931800E-002 
 2.641276726125600E-002  2.706516261260900E-002  2.773367212914100E-002  2.841869383073100E-002 
 2.912063556835000E-002  2.983991526688800E-002  3.057696117398000E-002  3.133221211497700E-002 
 3.210611775421700E-002  3.289913886274700E-002  3.371174759265600E-002  3.454442775819500E-002 
 3.539767512382200E-002  3.627199769938100E-002  3.716791604255600E-002  3.808596356880700E-002 
 3.902668686895600E-002  3.999064603461900E-002  4.097841499167400E-002  4.199058184196900E-002 
 4.302774921346500E-002  4.409053461903800E-002  4.517957082412800E-002  4.629550622348400E-002 
 4.743900522720400E-002  4.861074865631600E-002  4.981143414812700E-002  5.104177657158600E-002 
 5.230250845290400E-002  5.359438041169100E-002  5.491816160786000E-002  5.627464019957400E-002 
 5.766462381250300E-002  5.908894002067200E-002  6.054843683918300E-002  6.204398322911100E-002 
 6.357646961487000E-002  6.514680841435699E-002  6.675593458219101E-002  6.840480616637200E-002 
 7.009440487868100E-002  7.182573667918400E-002  7.359983237516000E-002  7.541774823482700E-002 
 7.728056661622699E-002  7.918939661164801E-002  8.114537470795501E-002  8.314966546324200E-002 
 8.520346220018400E-002  8.730798771652799E-002  8.946449501312700E-002  9.167426803995100E-002 
 9.393862246053800E-002  9.625890643531300E-002  9.863650142426500E-002  1.010728230094400E-001 
 1.035693217377800E-001  1.061274839847000E-001  1.087488328391200E-001  1.114349290102500E-001 
 1.141873717568000E-001  1.170077998392000E-001  1.198978924952200E-001  1.228593704398600E-001 
 1.258939968897200E-001  1.290035786129000E-001  1.321899670046300E-001  1.354550591896500E-001 
 1.388007991516300E-001  1.422291788906800E-001  1.457422396092800E-001  1.493420729276300E-001 
 1.530308221289400E-001  1.568106834355300E-001  1.606839073163800E-001  1.646527998271000E-001 
 1.687197239828300E-001  1.728871011652000E-001  1.771574125639800E-001  1.815332006543100E-001 
 1.860170707104700E-001  1.906116923570200E-001  1.953198011582400E-001  2.001442002468500E-001 
 2.050877619929500E-001  2.101534297141700E-001  2.153442194281100E-001  2.206632216479900E-001 
 2.261136032226900E-001  2.316986092222900E-001  2.374215648700800E-001  2.432858775223800E-001 
 2.492950386971800E-001  2.554526261530000E-001  2.617623060189800E-001  2.682278349776500E-001 
 2.748530625015900E-001  2.816419331453800E-001  2.885984888940700E-001  2.957268715697600E-001 
 3.030313252975300E-001  3.105161990323800E-001  3.181859491484800E-001  3.260451420924500E-001 
 3.340984571021300E-001  3.423506889925500E-001  3.508067510106700E-001  3.594716777606300E-001 
 3.683506282013200E-001  3.774488887178900E-001  3.867718762692200E-001  3.963251416130700E-001 
 4.061143726109200E-001  4.161453976144100E-001  4.264241889354800E-001  4.369568664021900E-001 
 4.477497010023200E-001  4.588091186170800E-001  4.701417038469200E-001  4.817542039319400E-001 
 4.936535327690600E-001  5.058467750284600E-001  5.183411903716600E-001  5.311442177738400E-001 
 5.442634799528500E-001  5.577067879076900E-001  5.714821455690100E-001  5.855977545645600E-001 
 6.000620191023101E-001  6.148835509741301E-001  6.300711746832000E-001  6.456339326978699E-001 
 6.615810908355100E-001  6.779221437791400E-001  6.946668207304900E-001  7.118250912025300E-001 
 7.294071709552400E-001  7.474235280778300E-001  7.658848892213500E-001  7.848022459851201E-001 
 8.041868614609500E-001  8.240502769390400E-001  8.444043187794300E-001  8.652611054532801E-001 
 8.866330547579800E-001  9.085328912105000E-001  9.309736536234000E-001  9.539687028679000E-001 
 9.775317298287400E-001  1.001676763555500E+000  1.026418179615300E+000  1.051770708651800E+000 
 1.077749445155500E+000  1.104369856450900E+000  1.131647791905200E+000  1.159599492365300E+000 
 1.188241599826700E+000  1.217591167342400E+000  1.247665669175800E+000  1.278483011204400E+000 
 1.310061541581100E+000  1.342420061658200E+000  1.375577837181200E+000  1.409554609759500E+000 
 1.444370608620600E+000  1.480046562653500E+000  1.516603712751100E+000  1.554063824456000E+000 
 1.592449200920100E+000  1.631782696182800E+000  1.672087728778500E+000  1.713388295679400E+000 
 1.755708986582600E+000  1.799074998551200E+000  1.843512151015400E+000  1.889046901145500E+000 
 1.935706359603800E+000  1.983518306686000E+000  2.032511208861200E+000  2.082714235720000E+000 
 2.134157277342300E+000  2.186870962092700E+000  2.240886674856400E+000  2.296236575725300E+000 
 2.352953619145700E+000  2.411071573538600E+000  2.470625041405000E+000  2.531649479927700E+000 
 2.594181222082000E+000  2.658257498267400E+000  2.723916458474600E+000  2.791197194998900E+000 
 2.860139765715400E+000  2.930785217928600E+000  3.003175612811400E+000  3.077354050447800E+000 
 3.153364695493900E+000  3.231252803472600E+000  3.311064747718400E+000  3.392848046987000E+000 
 3.476651393747600E+000  3.562524683173200E+000  3.650519042847500E+000  3.740686863205900E+000 
 3.833081828727000E+000  3.927758949896600E+000  4.024774595959100E+000  4.124186528479200E+000 
 4.226053935732700E+000  4.330437467945300E+000  4.437399273403500E+000  4.547003035456600E+000 
 4.659314010432400E+000  4.774399066490000E+000  4.892326723432300E+000  5.013167193501100E+000 
 5.136992423180600E+000  5.263876136033200E+000  5.393893876593200E+000  5.527123055345000E+000 
 5.663642994812100E+000  5.803534976783900E+000  5.946882290710500E+000  6.093770283291000E+000 
 6.244286409288300E+000  6.398520283597700E+000  6.556563734602600E+000  6.718510858847300E+000 
 6.884458077060800E+000  7.054504191564200E+000  7.228750445095800E+000  7.407300581089700E+000 
 7.590260905442600E+000  7.777740349807100E+000  7.969850536447300E+000  8.166705844697500E+000 
 8.368423479061599E+000  8.575123538994401E+000  8.786929090407600E+000  9.003966238940601E+000 
 9.226364205042501E+000  9.454255400907000E+000  9.687775509309400E+000  9.927063564389300E+000 
 1.017226203443000E+001  1.042351690668000E+001  1.068097777427500E+001  1.094479792530000E+001 
 1.121513443405500E+001  1.149214825457600E+001  1.177600431646400E+001  1.206687162308100E+001 
 1.236492335217100E+001  1.267033695896900E+001  1.298329428185600E+001  1.330398165061800E+001 
 1.363258999738800E+001  1.396931497032300E+001  1.431435705009000E+001  1.466792166922800E+001 
 1.503021933445700E+001  1.540146575201900E+001  1.578188195609300E+001  1.617169444040900E+001 
 1.657113529308700E+001  1.698044233482600E+001  1.739985926049600E+001  1.782963578423100E+001 
 1.827002778810100E+001  1.872129747446700E+001  1.918371352208700E+001  1.965755124608200E+001 
 2.014309276186000E+001  2.064062715307800E+001  2.115045064375900E+001  2.167286677466000E+001 
 2.220818658399400E+001  2.275672879261900E+001  2.331881999379700E+001  2.389479484764400E+001 
 2.448499628038000E+001  2.508977568850600E+001  2.570949314801200E+001  2.634451762876800E+001 
 2.699522721419800E+001  2.766200932638900E+001  2.834526095675100E+001  2.904538890238200E+001 
 2.976281000827100E+001  3.049795141547600E+001  3.125125081543800E+001  3.202315671057900E+001 
 3.281412868133100E+001  3.362463765975900E+001  3.445516620995500E+001  3.530620881534100E+001 
 3.617827217308000E+001  3.707187549575500E+001  3.798755082050000E+001  3.892584332576700E+001 
 3.988731165591300E+001  4.087252825381400E+001  4.188207970168400E+001  4.291656707031500E+001 
 4.397660627695200E+001  4.506282845199300E+001  4.617588031475700E+001  4.731642455853100E+001 
 4.848514024512700E+001  4.968272320918200E+001  5.090988647244800E+001  5.216736066831800E+001 
 5.345589447682500E+001  5.477625507040300E+001  5.612922857064200E+001  5.751562051633700E+001 
 5.893625634309000E+001  6.039198187476500E+001  6.188366382707100E+001  6.341219032360000E+001 
 6.497847142459300E+001  6.658343966878000E+001  6.822805062859899E+001  6.991328347912599E+001 
 7.164014158106001E+001  7.340965307811200E+001  7.522287150914200E+001  7.708087643541700E+001 
 7.898477408337200E+001
    </PP_R>
    <PP_RAB type="real" size="561" columns="4">
 2.242636656574910E-006  2.298029781992328E-006  2.354791117607521E-006  2.412954458212432E-006 
 2.472554433330405E-006  2.533626527833551E-006  2.596207103071151E-006  2.660333418516814E-006 
 2.726043653954206E-006  2.793376932206998E-006  2.862373342432468E-006  2.933073963990447E-006 
 3.005520890901028E-006  3.079757256906430E-006  3.155827261151869E-006  3.233776194502309E-006 
 3.313650466506528E-006  3.395497633029259E-006  3.479366424565062E-006  3.565306775251986E-006 
 3.653369852600636E-006  3.743608087959871E-006  3.836075207732554E-006  3.930826265363317E-006 
 4.027917674117855E-006  4.127407240668644E-006  4.229354199513169E-006  4.333819248241040E-006 
 4.440864583672657E-006  4.550553938889461E-006  4.662952621179904E-006  4.778127550923105E-006 
 4.896147301430942E-006  5.017082139776136E-006  5.141004068628786E-006  5.267986869123796E-006 
 5.398106144791169E-006  5.531439366567446E-006  5.668065918921747E-006  5.808067147119078E-006 
 5.951526405652894E-006  6.098529107872509E-006  6.249162776837098E-006  6.403517097424833E-006 
 6.561683969731295E-006  6.723757563783786E-006  6.889834375609095E-006  7.060013284686692E-006 
 7.234395612818332E-006  7.413085184455072E-006  7.596188388511210E-006  7.783814241707367E-006 
 7.976074453477603E-006  8.173083492478379E-006  8.374958654742574E-006  8.581820133514642E-006 
 8.793791090812546E-006  9.010997730755526E-006  9.233569374705254E-006  9.461638538260407E-006 
 9.695341010155658E-006  9.934815933106312E-006  1.018020588665420E-005  1.043165697205443E-005 
 1.068931889926411E-005  1.095334507607591E-005  1.122389269945512E-005  1.150112284913173E-005 
 1.178520058350522E-005  1.207629503791774E-005  1.237457952535440E-005  1.268023163963066E-005 
 1.299343336112947E-005  1.331437116514945E-005  1.364323613292853E-005  1.398022406541184E-005 
 1.432553559982751E-005  1.467937632914320E-005  1.504195692447322E-005  1.541349326050761E-005 
 1.579420654404223E-005  1.618432344568004E-005  1.658407623478838E-005  1.699370291778747E-005 
 1.741344737985699E-005  1.784355953013945E-005  1.828429545053371E-005  1.873591754816205E-005 
 1.919869471160163E-005  1.967290247097829E-005  2.015882316201138E-005  2.065674609411309E-005 
 2.116696772263751E-005  2.168979182538676E-005  2.222552968347389E-005  2.277450026665563E-005 
 2.333703042324190E-005  2.391345507469604E-005  2.450411741504126E-005  2.510936911519327E-005 
 2.572957053233822E-005  2.636509092448621E-005  2.701630867032019E-005  2.768361149447759E-005 
 2.836739669839286E-005  2.906807139684213E-005  2.978605276034386E-005  3.052176826352532E-005 
 3.127565593963296E-005  3.204816464134274E-005  3.283975430798282E-005  3.365089623939062E-005 
 3.448207337650412E-005  3.533378058890487E-005  3.620652496944895E-005  3.710082613619612E-005 
 3.801721654175890E-005  3.895624179034004E-005  3.991846096256090E-005  4.090444694833690E-005 
 4.191478678796111E-005  4.295008202162287E-005  4.401094904755664E-005  4.509801948903337E-005 
 4.621194057041159E-005  4.735337550250184E-005  4.852300387741304E-005  4.972152207318550E-005 
 5.094964366839138E-005  5.220809986700266E-005  5.349763993371671E-005  5.481903164007908E-005 
 5.617306172158846E-005  5.756053634611350E-005  5.898228159386061E-005  6.043914394922924E-005 
 6.193199080477696E-005  6.346171097765279E-005  6.502921523880152E-005  6.663543685519984E-005 
 6.828133214552488E-005  6.996788104951809E-005  7.169608771144036E-005  7.346698107791306E-005 
 7.528161551053821E-005  7.714107141364907E-005  7.904645587756676E-005  8.099890333774122E-005 
 8.299957625018407E-005  8.504966578356395E-005  8.715039252841622E-005  8.930300722386905E-005 
 9.150879150229883E-005  9.376905865240479E-005  9.608515440112054E-005  9.845845771482813E-005 
 1.008903816203828E-004  1.033823740464084E-004  1.059359186853535E-004  1.085525358768809E-004 
 1.112337835130411E-004  1.139812579658136E-004  1.167965950375684E-004  1.196814709349971E-004 
 1.226376032670901E-004  1.256667520677873E-004  1.287707208438630E-004  1.319513576487060E-004 
 1.352105561826280E-004  1.385502569203406E-004  1.419724482662708E-004  1.454791677384480E-004 
 1.490725031815883E-004  1.527545940101741E-004  1.565276324822250E-004  1.603938650045364E-004 
 1.643555934701486E-004  1.684151766288603E-004  1.725750314915948E-004  1.768376347694350E-004 
 1.812055243482406E-004  1.856813007996420E-004  1.902676289293946E-004  1.949672393639491E-004 
 1.997829301762406E-004  2.047175685515932E-004  2.097740924948168E-004  2.149555125794398E-004 
 2.202649137401512E-004  2.257054571095320E-004  2.312803819001378E-004  2.369930073330707E-004 
 2.428467346141990E-004  2.488450489591654E-004  2.549915216684581E-004  2.612898122536605E-004 
 2.677436706163324E-004  2.743569392805650E-004  2.811335556807876E-004  2.880775545061089E-004 
 2.951930701024127E-004  3.024843389339400E-004  3.099557021056035E-004  3.176116079476185E-004 
 3.254566146639154E-004  3.334953930461147E-004  3.417327292543579E-004  3.501735276669459E-004 
 3.588228138003217E-004  3.676857373011805E-004  3.767675750125101E-004  3.860737341153207E-004 
 3.956097553479658E-004  4.053813163050799E-004  4.153942348178172E-004  4.256544724178058E-004 
 4.361681378865259E-004  4.469414908923325E-004  4.579809457173678E-004  4.692930750765820E-004 
 4.808846140309631E-004  4.927624639975365E-004  5.049336968582811E-004  5.174055591706716E-004 
 5.301854764821887E-004  5.432810577513099E-004  5.567000998777628E-004  5.704505923447514E-004 
 5.845407219756636E-004  5.989788778084623E-004  6.137736560903171E-004  6.289338653957489E-004 
 6.444685318710201E-004  6.603869046082337E-004  6.766984611520707E-004  6.934129131425322E-004 
 7.105402120971514E-004  7.280905553359450E-004  7.460743920527396E-004  7.645024295364348E-004 
 7.833856395459863E-004  8.027352648427927E-004  8.225628258843890E-004  8.428801276837431E-004 
 8.636992668375213E-004  8.850326387284226E-004  9.068929449050218E-004  9.292932006441726E-004 
 9.522467427000707E-004  9.757672372447571E-004  9.998686880047004E-004  1.024565444598433E-003 
 1.049872211079998E-003  1.075804054693684E-003  1.102376414844613E-003  1.129605112291276E-003 
 1.157506358564869E-003  1.186096765621422E-003  1.215393355732271E-003  1.245413571618865E-003 
 1.276175286837846E-003  1.307696816422748E-003  1.339996927788396E-003  1.373094851904765E-003 
 1.407010294746802E-003  1.441763449027052E-003  1.477375006218030E-003  1.513866168871619E-003 
 1.551258663242747E-003  1.589574752224836E-003  1.628837248604775E-003  1.669069528645334E-003 
 1.710295546002865E-003  1.752539845989125E-003  1.795827580185060E-003  1.840184521415644E-003 
 1.885637079094605E-003  1.932212314948247E-003  1.979937959127451E-003  2.028842426717912E-003 
 2.078954834657842E-003  2.130305019073878E-003  2.182923553045021E-003  2.236841764805227E-003 
 2.292091756395922E-003  2.348706422778894E-003  2.406719471421527E-003  2.466165442365532E-003 
 2.527079728792128E-003  2.589498598093216E-003  2.653459213466068E-003  2.718999656038770E-003 
 2.786158947542851E-003  2.854977073547331E-003  2.925495007263749E-003  2.997754733943361E-003 
 3.071799275871651E-003  3.147672717985776E-003  3.225420234119814E-003  3.305088113902711E-003 
 3.386723790316001E-003  3.470375867936923E-003  3.556094151874970E-003  3.643929677426300E-003 
 3.733934740458670E-003  3.826162928548126E-003  3.920669152883078E-003  4.017509680959423E-003 
 4.116742170079136E-003  4.218425701679947E-003  4.322620816511431E-003  4.429389550679255E-003 
 4.538795472580998E-003  4.650903720753783E-003  4.765781042656440E-003  4.883495834410090E-003 
 5.004118181520088E-003  5.127719900603491E-003  5.254374582148397E-003  5.384157634327601E-003 
 5.517146327895362E-003  5.653419842194367E-003  5.793059312296555E-003  5.936147877310500E-003 
 6.082770729880001E-003  6.233015166908029E-003  6.386970641530678E-003  6.544728816376516E-003 
 6.706383618140820E-003  6.872031293508917E-003  7.041770466458566E-003  7.215702196980251E-003 
 7.393930041245588E-003  7.576560113264377E-003  7.763701148062013E-003  7.955464566419207E-003 
 8.151964541209675E-003  8.353318065377492E-003  8.559645021592413E-003  8.771068253625659E-003 
 8.987713639490271E-003  9.209710166385618E-003  9.437190007495298E-003  9.670288600680437E-003 
 9.909144729117419E-003  1.015390060392663E-002  1.040470194884347E-002  1.066169808697999E-002 
 1.092504202972830E-002  1.119489056786265E-002  1.147140436488881E-002  1.175474805270160E-002 
 1.204509032960335E-002  1.234260406074466E-002  1.264746638104498E-002  1.295985880065679E-002 
 1.327996731303292E-002  1.360798250566494E-002  1.394409967355487E-002  1.428851893549156E-002 
 1.464144535319833E-002  1.500308905342216E-002  1.537366535304191E-002  1.575339488726192E-002 
 1.614250374097735E-002  1.654122358337932E-002  1.694979180588892E-002  1.736845166349430E-002 
 1.779745241958279E-002  1.823704949434637E-002  1.868750461685667E-002  1.914908598089310E-002 
 1.962206840462110E-002  2.010673349421535E-002  2.060336981152236E-002  2.111227304586692E-002 
 2.163374619009993E-002  2.216809972099535E-002  2.271565178410395E-002  2.327672838317137E-002 
 2.385166357423577E-002  2.444079966451915E-002  2.504448741623226E-002  2.566308625541325E-002 
 2.629696448592198E-002  2.694649950872569E-002  2.761207804659030E-002  2.829409637434210E-002 
 2.899296055478779E-002  2.970908668049057E-002  3.044290112149973E-002  3.119484077919975E-002 
 3.196535334644479E-002  3.275489757410312E-002  3.356394354418450E-002  3.439297294972402E-002 
 3.524247938158318E-002  3.611296862230758E-002  3.700495894728001E-002  3.791898143327656E-002 
 3.885558027467938E-002  3.981531310746331E-002  4.079875134121729E-002  4.180648049934709E-002 
 4.283910056767899E-002  4.389722635170090E-002  4.498148784258755E-002  4.609253059229994E-002 
 4.723101609792989E-002  4.839762219554843E-002  4.959304346377983E-002  5.081799163733345E-002 
 5.207319603077597E-002  5.335940397273724E-002  5.467738125086410E-002  5.602791256775915E-002 
 5.741180200818244E-002  5.882987351778458E-002  6.028297139367377E-002  6.177196078709743E-002 
 6.329772821854084E-002  6.486118210553816E-002  6.646325330354484E-002  6.810489566014186E-002 
 6.978708658294802E-002  7.151082762154755E-002  7.327714506379888E-002  7.508709054687371E-002 
 7.694174168338246E-002  7.884220270296201E-002  8.078960510972583E-002  8.278510835593497E-002 
 8.482990053232707E-002  8.692519907547640E-002  8.907225149263875E-002  9.127233610450856E-002 
 9.352676280628783E-002  9.583687384760420E-002  9.820404463164133E-002  1.006296845340407E-001 
 1.031152377420330E-001  1.056621841142613E-001  1.082720400618824E-001  1.109463594514117E-001 
 1.136867345298621E-001  1.164947968727477E-001  1.193722183555045E-001  1.223207121488860E-001 
 1.253420337389641E-001  1.284379819723174E-001  1.316104001270332E-001  1.348611770101696E-001 
 1.381922480823227E-001  1.416055966099547E-001  1.451032548462215E-001  1.486873052409219E-001 
 1.523598816803730E-001  1.561231707578777E-001  1.599794130755982E-001  1.639309045785659E-001 
 1.679799979216557E-001  1.721291038703206E-001  1.763806927359167E-001  1.807372958464946E-001 
 1.852015070539026E-001  1.897759842781357E-001  1.944634510898048E-001  1.992666983317218E-001 
 2.041885857805170E-001  2.092320438492953E-001  2.144000753323738E-001  2.196957571930818E-001 
 2.251222423957526E-001  2.306827617829265E-001  2.363806259989647E-001  2.422192274611381E-001 
 2.482020423794351E-001  2.543326328261969E-001  2.606146488570041E-001  2.670518306837820E-001 
 2.736480109016736E-001  2.804071167709411E-001  2.873331725551826E-001  2.944303019173039E-001 
 3.017027303746589E-001  3.091547878148977E-001  3.167909110739371E-001  3.246156465774672E-001 
 3.326336530479241E-001  3.408497042781961E-001  3.492686919738681E-001  3.578956286656416E-001 
 3.667356506936602E-001  3.757940212658158E-001  3.850761335910603E-001  3.945875140907717E-001 
 4.043338256888113E-001  4.143208711833189E-001  4.245545967015419E-001  4.350410952400883E-001 
 4.457866102925061E-001  4.567975395667287E-001  4.680804387940432E-001  4.796420256322426E-001 
 4.914891836653535E-001  5.036289665018892E-001  5.160686019744851E-001  5.288154964432586E-001 
 5.418772392054046E-001  5.552616070137867E-001  5.689765687070347E-001  5.830302899541038E-001 
 5.974311381159504E-001  6.121876872274293E-001  6.273087231019445E-001  6.428032485625650E-001 
 6.586804888020464E-001  6.749498968754646E-001  6.916211593282933E-001  7.087042019636838E-001 
 7.262091957521908E-001  7.441465628872871E-001  7.625269829905968E-001  7.813613994704569E-001 
 8.006610260373941E-001  8.204373533804965E-001  8.407021560089936E-001  8.614674992624184E-001 
 8.827457464942021E-001  9.045495664326070E-001  9.268919407234887E-001  9.497861716593747E-001 
 9.732458900993505E-001  9.972850635848031E-001  1.021918004655367E+000  1.047159379370340E+000 
 1.073024216040793E+000  1.099527914177008E+000  1.126686253657174E+000  1.154515404122494E+000 
 1.183031934604327E+000  1.212252823389062E+000  1.242195468126753E+000  1.272877696189497E+000 
 1.304317775285366E+000  1.336534424334925E+000  1.369546824615999E+000  1.403374631184017E+000 
 1.438037984574250E+000  1.473557522793250E+000  1.509954393606227E+000  1.547250267128309E+000 
 1.585467348726380E+000  1.624628392239911E+000  1.664756713528240E+000  1.705876204352402E+000 
 1.748011346599897E+000  1.791187226860909E+000  1.835429551364389E+000  1.880764661283070E+000 
 1.927219548416767E+000
    </PP_RAB>
  </PP_MESH>
  <PP_LOCAL type="real" size="561" columns="4">
-8.693037311003000E+001 -8.693050035326800E+001 -8.693062452968800E+001 -8.693074571323000E+001 
-8.693086397605400E+001 -8.693097938857800E+001 -8.693109201953000E+001 -8.693120193597800E+001 
-8.693130920337600E+001 -8.693141388559800E+001 -8.693151604498200E+001 -8.693161574236800E+001 
-8.693171303712199E+001 -8.693180798719000E+001 -8.693190064911600E+001 -8.693199107808400E+001 