<UPF version="2.0.1">
  <PP_INFO>
    Generated using FHI98PP, converted with fhi2upf.x v.5.0.1
    Author: Abinit web site
    Generation date: 10-Jul-2012, PG
    Pseudopotential type: SL
    Element: Es
    Functional: SLA-PW

    Suggested minimum cutoff for wavefunctions:   0. Ry
    Suggested minimum cutoff for charge density:   0. Ry
    The Pseudo was generated with a Non-Relativistic Calculation
    L component and cutoff radius for Local Potential:  0   0.0000

    Valence configuration: 
    nl pn  l   occ       Rcut    Rcut US       E pseu
    7s  7  0  2.00      0.000      0.000     0.000000
    7p  7  1  0.00      0.000      0.000     0.000000
    6d  6  2  0.00      0.000      0.000     0.000000
    5f  5  3 11.00      0.000      0.000     0.000000

    Generation configuration: not available.
    Comment:
    einsteinium, fhi98PP : Trouiller-Martins-type, LDA Ceperley/Alder Perdew/Wang (1
  </PP_INFO>
  <!--                               -->
  <!-- END OF HUMAN READABLE SECTION -->
  <!--                               -->
  <PP_HEADER generated="Generated using FHI98PP, converted with fhi2upf.x v.5.0.1"
             author="Abinit web site"
             date="10-Jul-2012, PG"
             comment="einsteinium, fhi98PP : Trouiller-Martins-type, LDA Ceperley/Alder Perdew/Wang (1"
             element="Es"
             pseudo_type="SL"
             relativistic="no"
             is_ultrasoft="F"
             is_paw="F"
             is_coulomb="F"
             has_so="F"
             has_wfc="F"
             has_gipaw="F"
             paw_as_gipaw="F"
             core_correction="T"
             functional="SLA-PW"
             z_valence="1.300000000000000E+001"
             total_psenergy="0.000000000000000E+000"
             wfc_cutoff="0.000000000000000E+000"
             rho_cutoff="0.000000000000000E+000"
             l_max="3"
             l_max_rho="0"
             l_local="0"
             mesh_size="575"
             number_of_wfc="4"
             number_of_proj="3"/>
  <PP_MESH dx="2.439988682353512E-002" mesh="575" xmin="-5.075173815233829E+000" rmax="7.634338377095700E+001"
zmesh="9.900000000000000E+001">
    <PP_R type="real" size="575" columns="4">
 6.313131313131300E-005  6.469065656565700E-005  6.628851578282800E-005  6.792584212266400E-005 
 6.960361042309399E-005  7.132281960054400E-005  7.308449324467801E-005  7.488968022782100E-005 
 7.673945532944900E-005  7.863491987608599E-005  8.057720239702500E-005  8.256745929623200E-005 
 8.460687554084901E-005  8.669666536670800E-005  8.883807300126500E-005  9.103237340439699E-005 
 9.328087302748500E-005  9.558491059126400E-005  9.794585788286800E-005  1.003651205725800E-004 
 1.028441390507200E-004  1.053843892852700E-004  1.079873837006200E-004  1.106546720780200E-004 
 1.133878424783500E-004  1.161885221875600E-004  1.190583786856000E-004  1.219991206391300E-004 
 1.250124989189200E-004  1.281003076422100E-004  1.312643852409800E-004  1.345066155564300E-004 
 1.378289289606700E-004  1.412333035060000E-004  1.447217661026000E-004  1.482963937253300E-004 
 1.519593146503500E-004  1.557127097222100E-004  1.595588136523500E-004  1.634999163495700E-004 
 1.675383642834000E-004  1.716765618812000E-004  1.759169729596700E-004  1.802621221917700E-004 
 1.847145966099100E-004  1.892770471461700E-004  1.939521902106800E-004  1.987428093088900E-004 
 2.036517566988100E-004  2.086819550892800E-004  2.138363993799800E-004  2.191181584446700E-004 
 2.245303769582500E-004  2.300762772691200E-004  2.357591613176700E-004  2.415824126022100E-004 
 2.475494981934900E-004  2.536639707988700E-004  2.599294708776000E-004  2.663497288082700E-004 
 2.729285671098400E-004  2.796699027174500E-004  2.865777493145700E-004  2.936562197226400E-004 
 3.009095283497900E-004  3.083419937000300E-004  3.159580409444200E-004  3.237622045557500E-004 
 3.317591310082800E-004  3.399535815441800E-004  3.483504350083200E-004  3.569546907530300E-004 
 3.657714716146300E-004  3.748060269635100E-004  3.840637358295100E-004  3.935501101045000E-004 
 4.032707978240800E-004  4.132315865303300E-004  4.234384067176300E-004  4.338973353635600E-004 
 4.446145995470400E-004  4.555965801558500E-004  4.668498156857000E-004  4.783810061331300E-004 
 4.901970169846200E-004  5.023048833041400E-004  5.147118139217500E-004  5.274251957256201E-004 
 5.404525980600400E-004  5.538017772321300E-004  5.674806811297600E-004  5.814974539536699E-004 
 5.958604410663200E-004  6.105781939606600E-004  6.256594753514900E-004  6.411132643926700E-004 
 6.569487620231700E-004  6.731753964451400E-004  6.898028287373400E-004  7.068409586071500E-004 
 7.242999302847399E-004  7.421901385627800E-004  7.605222349852800E-004  7.793071341894100E-004 
 7.985560204038900E-004  8.182803541078700E-004  8.384918788543300E-004  8.592026282620300E-004 
 8.804249331801100E-004  9.021714290296600E-004  9.244550633266901E-004  9.472891033908600E-004 
 9.706871442446100E-004  9.946631167074499E-004  1.019231295690100E-003  1.044406308693700E-003 
 1.070203144518400E-003  1.096637162188000E-003  1.123724100094100E-003  1.151480085366400E-003 
 1.179921643474900E-003  1.209065708068800E-003  1.238929631058100E-003  1.269531192945200E-003 
 1.300888613410900E-003  1.333020562162200E-003  1.365946170047600E-003  1.399685040447800E-003 
 1.434257260946800E-003  1.469683415292200E-003  1.505984595649900E-003  1.543182415162500E-003 
 1.581299020817000E-003  1.620357106631200E-003  1.660379927165000E-003  1.701391311365900E-003 
 1.743415676756700E-003  1.786478043972600E-003  1.830604051658700E-003  1.875819971734700E-003 
 1.922152725036500E-003  1.969629897344900E-003  2.018279755809300E-003  2.068131265777800E-003 
 2.119214108042500E-003  2.171558696511200E-003  2.225196196315000E-003  2.280158542364000E-003 
 2.336478458360400E-003  2.394189476281900E-003  2.453325956346000E-003  2.513923107467800E-003 
 2.576017008222200E-003  2.639644628325300E-003  2.704843850645000E-003  2.771653493755900E-003 
 2.840113335051700E-003  2.910264134427400E-003  2.982147658547800E-003  3.055806705713900E-003 
 3.131285131345100E-003  3.208627874089300E-003  3.287880982579300E-003  3.369091642849000E-003 
 3.452308206427400E-003  3.537580219126100E-003  3.624958450538500E-003  3.714494924266900E-003 
 3.806242948896200E-003  3.900257149734000E-003  3.996593501332400E-003  4.095309360815300E-003 
 4.196463502027500E-003  4.300116150527500E-003  4.406329019445600E-003  4.515165346225900E-003 
 4.626689930277600E-003  4.740969171555500E-003  4.858071110092900E-003  4.978065466512200E-003 
 5.101023683535100E-003  5.227018968518400E-003  5.356126337040800E-003  5.488422657565700E-003 
 5.623986697207600E-003  5.762899168628600E-003  5.905242778093700E-003  6.051102274712600E-003 
 6.200564500898000E-003  6.353718444070200E-003  6.510655289638800E-003  6.671468475292800E-003 
 6.836253746632600E-003  7.005109214174400E-003  7.178135411764500E-003  7.355435356435100E-003 
 7.537114609739000E-003  7.723281340599600E-003  7.914046389712400E-003  8.109523335538301E-003 
 8.309828561926099E-003  8.515081327405701E-003  8.725403836192599E-003  8.940921310946500E-003 
 9.161762067326900E-003  9.388057590389900E-003  9.619942612872500E-003  9.857555195410501E-003 
 1.010103680873700E-002  1.035053241791300E-002  1.060619056863500E-002  1.086816347568100E-002 
 1.113660711353000E-002  1.141168130923400E-002  1.169354983757200E-002  1.198238051856000E-002 
 1.227834531736900E-002  1.258162044670800E-002  1.289238647174100E-002  1.321082841759300E-002 
 1.353713587950800E-002  1.387150313573200E-002  1.421412926318400E-002  1.456521825598500E-002 
 1.492497914690800E-002  1.529362613183600E-002  1.567137869729300E-002  1.605846175111600E-002 
 1.645510575636900E-002  1.686154686855100E-002  1.727802707620400E-002  1.770479434498600E-002 
 1.814210276530700E-002  1.859021270361100E-002  1.904939095739000E-002  1.951991091403700E-002 
 2.000205271361400E-002  2.049610341564000E-002  2.100235717000700E-002  2.152111539210600E-002 
 2.205268694229100E-002  2.259738830976500E-002  2.315554380101600E-002  2.372748573290200E-002 
 2.431355463050400E-002  2.491409942987800E-002  2.552947768579600E-002  2.616005578463500E-002 
 2.680620916251500E-002  2.746832252882900E-002  2.814679009529200E-002  2.884201581064500E-002 
 2.955441360116800E-002  3.028440761711700E-002  3.103243248526000E-002  3.179893356764600E-002 
 3.258436722676700E-002  3.338920109726800E-002  3.421391436437000E-002  3.505899804917000E-002 
 3.592495530098500E-002  3.681230169691900E-002  3.772156554883300E-002  3.865328821788900E-002 
 3.960802443687100E-002  4.058634264046200E-002  4.158882530368100E-002  4.261606928868200E-002 
 4.366868620011200E-002  4.474730274925500E-002  4.585256112716200E-002  4.698511938700300E-002 
 4.814565183586200E-002  4.933484943620700E-002  5.055342021728200E-002  5.180208969664900E-002 
 5.308160131215600E-002  5.439271686456600E-002  5.573621697112100E-002  5.711290153030700E-002 
 5.852359019810600E-002  5.996912287599900E-002  6.145036021103600E-002  6.296818410824900E-002 
 6.452349825572300E-002  6.611722866263900E-002  6.775032421060601E-002  6.942375721860800E-002 
 7.113852402190800E-002  7.289564556524900E-002  7.469616801071099E-002  7.654116336057500E-002 
 7.843173009558101E-002  8.036899382894200E-002  8.235410797651700E-002  8.438825444353699E-002 
 8.647264432829301E-002  8.860851864320100E-002  9.079714905368801E-002  9.303983863531499E-002 
 9.533792264960700E-002  9.769276933905199E-002  1.001057807417300E-001  1.025783935260500E-001 
 1.051120798461400E-001  1.077083482183400E-001  1.103687444193300E-001  1.130948524064900E-001 
 1.158882952609300E-001  1.187507361538800E-001  1.216838793368800E-001  1.246894711565000E-001 
 1.277693010940600E-001  1.309252028310900E-001  1.341590553410100E-001  1.374727840079400E-001 
 1.408683617729300E-001  1.443478103087300E-001  1.479132012233500E-001  1.515666572935700E-001 
 1.553103537287200E-001  1.591465194658200E-001  1.630774384966200E-001  1.671054512274900E-001 
 1.712329558728100E-001  1.754624098828700E-001  1.797963314069700E-001  1.842373007927300E-001 
 1.887879621223100E-001  1.934510247867300E-001  1.982292650989600E-001  2.031255279469000E-001 
 2.081427284871900E-001  2.132838538808300E-001  2.185519650716800E-001  2.239501986089500E-001 
 2.294817685145900E-001  2.351499681969000E-001  2.409581724113700E-001  2.469098392699300E-001 
 2.530085122999000E-001  2.592578225537000E-001  2.656614907707800E-001  2.722233295928200E-001 
 2.789472458337600E-001  2.858372428058600E-001  2.928974227031600E-001  3.001319890439300E-001 
 3.075452491733100E-001  3.151416168278900E-001  3.229256147635400E-001  3.309018774482000E-001 
 3.390751538211700E-001  3.474503101205600E-001  3.560323327805300E-001  3.648263314002100E-001 
 3.738375417858000E-001  3.830713290679100E-001  3.925331908958800E-001  4.022287607110100E-001 
 4.121638111005700E-001  4.223442572347600E-001  4.327761603884600E-001  4.434657315500500E-001 
 4.544193351193400E-001  4.656434926967900E-001  4.771448869664000E-001  4.889303656744700E-001 
 5.010069457066300E-001  5.133818172655800E-001  5.260623481520400E-001  5.390560881513899E-001 
 5.523707735287300E-001  5.660143316348900E-001  5.799948856262800E-001  5.943207593012400E-001 
 6.090004820559900E-001  6.240427939627700E-001  6.394566509736500E-001  6.552512302527000E-001 
 6.714359356399400E-001  6.880204032502500E-001  7.050145072105301E-001  7.224283655386300E-001 
 7.402723461674300E-001  7.585570731177700E-001  7.772934328237699E-001  7.964925806145200E-001 
 8.161659473557000E-001  8.363252462553900E-001  8.569824798378900E-001  8.781499470898900E-001 
 8.998402507830100E-001  9.220663049773500E-001  9.448413427102900E-001  9.681789238752400E-001 
 9.920929432949500E-001  1.016597638994300E+000  1.041707600677500E+000  1.067437778414200E+000 
 1.093803491541100E+000  1.120820437782100E+000  1.148504702595300E+000  1.176872768749500E+000 
 1.205941526137600E+000  1.235728281833200E+000  1.266250770394400E+000  1.297527164423200E+000 
 1.329576085384400E+000  1.362416614693400E+000  1.396068305076400E+000  1.430551192211700E+000 
 1.465885806659400E+000  1.502093186083900E+000  1.539194887780100E+000  1.577213001508300E+000 
 1.616170162645600E+000  1.656089565662900E+000  1.696994977934800E+000  1.738910753889800E+000 
 1.781861849510800E+000  1.825873837193800E+000  1.870972920972400E+000  1.917185952120500E+000 
 1.964540445137800E+000  2.013064594132700E+000  2.062787289607800E+000  2.113738135661100E+000 
 2.165947467612000E+000  2.219446370062000E+000  2.274266695402500E+000  2.330441082779000E+000 
 2.388002977523600E+000  2.446986651068400E+000  2.507427221349800E+000  2.569360673717200E+000 
 2.632823882358000E+000  2.697854632252200E+000  2.764491641668800E+000  2.832774585218100E+000 
 2.902744117472900E+000  2.974441897174500E+000  3.047910612034700E+000  3.123194004152000E+000 
 3.200336896054600E+000  3.279385217387100E+000  3.360386032256600E+000  3.443387567253300E+000 
 3.528439240164500E+000  3.615591689396500E+000  3.704896804124600E+000  3.796407755186500E+000 
 3.890179026739600E+000  3.986266448700100E+000  4.084727229983000E+000  4.185619992563500E+000 
 4.289004806379800E+000  4.394943225097400E+000  4.503498322757300E+000  4.614734731329400E+000 
 4.728718679193300E+000  4.845518030569300E+000  4.965202325924400E+000  5.087842823374700E+000 
 5.213512541112100E+000  5.342286300877600E+000  5.474240772509200E+000  5.609454519590200E+000 
 5.748008046224100E+000  5.889983844965800E+000  6.035466445936500E+000  6.184542467151100E+000 
 6.337300666089800E+000  6.493831992542200E+000  6.654229642758000E+000  6.818589114934100E+000 
 6.987008266073000E+000  7.159587370245000E+000  7.336429178290000E+000  7.517638978993800E+000 
 7.703324661774900E+000  7.893596780920800E+000  8.088568621409500E+000  8.288356266358299E+000 
 8.493078666137400E+000  8.702857709191001E+000  8.917818294608001E+000  9.138088406484799E+000 
 9.363799190125000E+000  9.595085030121000E+000  9.832083630365000E+000  1.007493609603500E+001 
 1.032378701760700E+001  1.057878455694200E+001  1.084008053549800E+001  1.110783052472500E+001 
 1.138219393868600E+001  1.166333412897200E+001  1.195141848195700E+001  1.224661851846100E+001 
 1.254910999586700E+001  1.285907301276500E+001  1.317669211618100E+001  1.350215641145000E+001 
 1.383565967481300E+001  1.417740046878100E+001  1.452758226036000E+001  1.488641354219100E+001 
 1.525410795668300E+001  1.563088442321300E+001  1.601696726846600E+001  1.641258635999800E+001 
 1.681797724308900E+001  1.723338128099400E+001  1.765904579863400E+001  1.809522422986100E+001 
 1.854217626833800E+001  1.900016802216600E+001  1.946947217231400E+001  1.995036813497000E+001 
 2.044314222790400E+001  2.094808784093300E+001  2.146550561060400E+001  2.199570359918600E+001 
 2.253899747808600E+001  2.309571071579400E+001  2.366617477047400E+001  2.425072928730500E+001 
 2.484972230070200E+001  2.546351044152900E+001  2.609245914943500E+001  2.673694289042600E+001 
 2.739734537981900E+001  2.807405981070100E+001  2.876748908802500E+001  2.947804606849900E+001 
 3.020615380639100E+001  3.095224580540900E+001  3.171676627680300E+001  3.250017040384000E+001 
 3.330292461281400E+001  3.412550685075100E+001  3.496840686996500E+001  3.583212651965300E+001 
 3.671718004468800E+001  3.762409439179200E+001  3.855340952326900E+001  3.950567873849400E+001 
 4.048146900333500E+001  4.148136128771700E+001  4.250595091152400E+001  4.355584789903800E+001 
 4.463167734214500E+001  4.573407977249500E+001  4.686371154287600E+001  4.802124521798500E+001 
 4.920736997486900E+001  5.042279201324900E+001  5.166823497597600E+001  5.294444037988200E+001 
 5.425216805726600E+001  5.559219660828000E+001  5.696532386450500E+001  5.837236736395800E+001 
 5.981416483784800E+001  6.129157470934200E+001  6.280547660466300E+001  6.435677187679801E+001 
 6.594638414215500E+001  6.757525983046600E+001  6.924436874827900E+001  7.095470465636100E+001 
 7.270728586137400E+001  7.450315582215001E+001  7.634338377095700E+001
    </PP_R>
    <PP_RAB type="real" size="575" columns="4">
 1.540396895425194E-006  1.578444698742210E-006  1.617432282801125E-006  1.657382860186316E-006 
 1.698320216832923E-006  1.740268726188686E-006  1.783253363725560E-006  1.827299721809568E-006 
 1.872434024938285E-006  1.918683145354250E-006  1.966074619044493E-006  2.014636662134904E-006 
 2.064398187689638E-006  2.115388822925572E-006  2.167638926851817E-006  2.221179608345075E-006 
 2.276042744671184E-006  2.332261000464565E-006  2.389867847176034E-006  2.448897583001408E-006 
 2.509385353301477E-006  2.571367171527955E-006  2.634879940664789E-006  2.699961475199080E-006 
 2.766650523636568E-006  2.834986791570263E-006  2.905010965322226E-006  2.976764736165580E-006 
 3.050290825148954E-006  3.125633008529955E-006  3.202836143840826E-006  3.281946196593640E-006 
 3.363010267649410E-006  3.446076621260386E-006  3.531194713805562E-006  3.618415223236456E-006 
 3.707790079250502E-006  3.799372494207901E-006  3.893216994814870E-006  3.989379454586968E-006 
 4.087917127115159E-006  4.188888680154903E-006  4.292354230554836E-006  4.398375380049447E-006 
 4.507015251936748E-006  4.618338528659470E-006  4.732411490317348E-006  4.849302054128339E-006 
 4.969079814865075E-006  5.091816086292471E-006  5.217583943623767E-006  5.346458267031385E-006 
 5.478515786226978E-006  5.613835126146815E-006  5.752496853762707E-006  5.894583526050489E-006 
 6.040179739144068E-006  6.189372178700946E-006  6.342249671514807E-006  6.498903238401061E-006 
 6.659426148389707E-006  6.823913974254858E-006  6.992464649418928E-006  7.165178526259577E-006 
 7.342158435858209E-006  7.523509749223911E-006  7.709340440029723E-006  7.899761148898528E-006 
 8.094885249276394E-006  8.294828914933409E-006  8.499711189132234E-006  8.709654055503911E-006 
 8.924782510674860E-006  9.145224638688498E-006  9.371111687264133E-006  9.602578145939586E-006 
 9.839761826144265E-006  1.008280394324991E-005  1.033184920064821E-005  1.058704587590433E-005 
 1.084854590903917E-005  1.111650499299239E-005  1.139108266631931E-005  1.167244240817723E-005 
 1.196075173565925E-005  1.225618230353003E-005  1.255891000642717E-005  1.286911508358599E-005 
 1.318698222615049E-005  1.351270068713658E-005  1.384646439410877E-005  1.418847206464337E-005 
 1.453892732463993E-005  1.489803882955858E-005  1.526602038864872E-005  1.564309109224830E-005 
 1.602947544222686E-005  1.642540348564980E-005  1.683111095174548E-005  1.724683939225353E-005 
 1.767283632524203E-005  1.810935538247568E-005  1.855665646042281E-005  1.901500587499510E-005 
 1.948467652010752E-005  1.996594803015427E-005  2.045910694649897E-005  2.096444688807745E-005 
 2.148226872621316E-005  2.201288076375065E-005  2.255659891861523E-005  2.311374691190504E-005 
 2.368465646062900E-005  2.426966747520649E-005  2.486912826184350E-005  2.548339572991237E-005 
 2.611283560444036E-005  2.675782264386993E-005  2.741874086317489E-005  2.809598376249472E-005 
 2.878995456142712E-005  2.950106643909607E-005  3.022974278014176E-005  3.097641742681041E-005 
 3.174153493725149E-005  3.252555085020284E-005  3.332893195620270E-005  3.415215657552150E-005 
 3.499571484293540E-005  3.586010899955625E-005  3.674585369184486E-005  3.765347627803459E-005 
 3.858351714210171E-005  3.953653001551211E-005  4.051308230689549E-005  4.151375543987397E-005 
 4.253914519924037E-005  4.358986208566184E-005  4.466653167917712E-005  4.576979501165353E-005 
 4.690030894844022E-005  4.805874657946666E-005  4.924579761997902E-005  5.046216882119275E-005 
 5.170858439107594E-005  5.298578642553673E-005  5.429453535024684E-005  5.563561037339842E-005 
 5.700980994962158E-005  5.841795225537718E-005  5.986087567608346E-005  6.133943930528403E-005 
 6.285452345612322E-005  6.440703018548975E-005  6.599788383107293E-005  6.762803156169968E-005 
 6.929844394127437E-005  7.101011550662195E-005  7.276406535963658E-005  7.456133777401886E-005 
 7.640300281703874E-005  7.829015698661901E-005  8.022392386418837E-005  8.220545478363361E-005 
 8.423592951679009E-005  8.631655697585341E-005  8.844857593315664E-005  9.063325575870802E-005 
 9.287189717594585E-005  9.516583303619326E-005  9.751642911218652E-005  9.992508491125727E-005 
 1.023932345085669E-004  1.049223474009265E-004  1.075139293817311E-004  1.101695234374597E-004 
 1.128907106663630E-004  1.156791112198233E-004  1.185363852669524E-004  1.214642339830462E-004 
 1.244644005624287E-004  1.275386712563203E-004  1.306888764363512E-004  1.339168916843290E-004 
 1.372246389089325E-004  1.406140874899825E-004  1.440872554509844E-004  1.476462106606234E-004 
 1.512930720639407E-004  1.550300109439206E-004  1.588592522142370E-004  1.627830757439267E-004 
 1.668038177148034E-004  1.709238720123584E-004  1.751456916510635E-004  1.794717902348451E-004 
 1.839047434536447E-004  1.884471906169508E-004  1.931018362251893E-004  1.978714515799516E-004 
 2.027588764339764E-004  2.077670206818963E-004  2.128988660927386E-004  2.181574680852279E-004 
 2.235459575469335E-004  2.290675426983434E-004  2.347255110029917E-004  2.405232311247668E-004 
 2.464641549335452E-004  2.525518195604085E-004  2.587898495035396E-004  2.651819587862945E-004 
 2.717319531683081E-004  2.784437324115607E-004  2.853212926021243E-004  2.923687285293961E-004 
 2.995902361240860E-004  3.069901149563506E-004  3.145727707957557E-004  3.223427182344107E-004 
 3.303045833748118E-004  3.384631065841733E-004  3.468231453167882E-004  3.553896770061216E-004 
 3.641678020281769E-004  3.731627467382576E-004  3.823798665827085E-004  3.918246492872980E-004 
 4.015027181247049E-004  4.114198352623774E-004  4.215819051933530E-004  4.319949782516230E-004 
 4.426652542144343E-004  4.535990859935533E-004  4.648029834175893E-004  4.762836171079908E-004 
 4.880478224505651E-004  5.001026036650876E-004  5.124551379756322E-004  5.251127798836261E-004 
 5.380830655467513E-004  5.513737172657417E-004  5.649926480822007E-004  5.789479664898531E-004 
 5.932479812621359E-004  6.079012063993241E-004  6.229163661973878E-004  6.383024004424592E-004 
 6.540684697333762E-004  6.702239609357877E-004  6.867784927709242E-004  7.037419215423486E-004 
 7.211243470044462E-004  7.389361183754598E-004  7.571878404993387E-004  7.758903801596744E-004 
 7.950548725496216E-004  8.146927279015938E-004  8.348156382807506E-004  8.554355845462867E-004 
 8.765648434845922E-004  8.982159951186534E-004  9.204019301980867E-004  9.431358578739751E-004 
 9.664313135634659E-004  9.903021670084903E-004  1.014762630533590E-003  1.039827267507772E-003 
 1.065511001015203E-003  1.091829122740284E-003  1.118797302071979E-003  1.146431595433159E-003 
 1.174748455840359E-003  1.203764742699596E-003  1.233497731844293E-003  1.263965125820850E-003 
 1.295185064428620E-003  1.327176135520001E-003  1.359957386067350E-003  1.393548333503197E-003 
 1.427968977340736E-003  1.463239811081047E-003  1.499381834414744E-003  1.536416565724798E-003 
 1.574366054898207E-003  1.613252896454184E-003  1.653100242996598E-003  1.693931818998614E-003 
 1.735771934927890E-003  1.778645501720605E-003  1.822578045613113E-003  1.867595723339743E-003 
 1.913725337706230E-003  1.960994353547577E-003  2.009430914080206E-003  2.059063857657987E-003 
 2.109922734942155E-003  2.162037826495206E-003  2.215440160809636E-003  2.270161532781656E-003 
 2.326234522641356E-003  2.383692515350591E-003  2.442569720479834E-003  2.502901192575668E-003 
 2.564722852032203E-003  2.628071506477407E-003  2.692984872687325E-003  2.759501599042765E-003 
 2.827661288539114E-003  2.897504522366152E-003  2.969072884068576E-003  3.042408984305047E-003 
 3.117556486217246E-003  3.194560131426976E-003  3.273465766673029E-003  3.354320371110025E-003 
 3.437172084276293E-003  3.522070234758128E-003  3.609065369556517E-003  3.698209284184642E-003 
 3.789555053503974E-003  3.883157063325537E-003  3.979071042789537E-003  4.077354097546524E-003 
 4.178064743755948E-003  4.281262942926758E-003  4.387010137616881E-003  4.495369288016210E-003 
 4.606404909430199E-003  4.720183110693100E-003  4.836771633527164E-003  4.956239892875180E-003 
 5.078659018229236E-003  5.204101895979653E-003  5.332643212810193E-003  5.464359500166592E-003 
 5.599329179820682E-003  5.737632610562243E-003  5.879352136043290E-003  6.024572133803539E-003 
 6.173379065508554E-003  6.325861528426431E-003  6.482110308178652E-003  6.642218432790706E-003 
 6.806281228080573E-003  6.974396374414312E-003  7.146663964862230E-003  7.323186564794375E-003 
 7.504069272944672E-003  7.689419783986387E-003  7.879348452650878E-003  8.073968359431369E-003 
 8.273395377909309E-003  8.477748243743843E-003  8.687148625364126E-003  8.901721196410641E-003 
 9.121593709962100E-003  9.346897074598185E-003  9.577765432340579E-003  9.814336238519433E-003 
 1.005675034361082E-002  1.030515207709815E-002  1.055968933340251E-002  1.082051365993743E-002 
 1.108778034733797E-002  1.136164852191728E-002  1.164228124040862E-002  1.192984558704671E-002 
 1.222451277304678E-002  1.252645823854094E-002  1.283586175703291E-002  1.315290754243149E-002 
 1.347778435872956E-002  1.381068563239019E-002  1.415180956751043E-002  1.450135926382771E-002 
 1.485954283764449E-002  1.522657354573423E-002  1.560266991231386E-002  1.598805585914803E-002 
 1.638296083886895E-002  1.678761997158910E-002  1.720227418488732E-002  1.762717035725403E-002 
 1.806256146507811E-002  1.850870673326564E-002  1.896587178957709E-002  1.943432882277971E-002 
 1.991435674470241E-002  2.040624135629665E-002  2.091027551779698E-002  2.142675932308667E-002 
 2.195600027836691E-002  2.249831348524256E-002  2.305402182832804E-002  2.362345616748788E-002 
 2.420695553482463E-002  2.480486733653393E-002  2.541754755974732E-002  2.604536098447224E-002 
 2.668868140079039E-002  2.734789183138833E-002  2.802338475962318E-002  2.871556236318822E-002 
 2.942483675355866E-002  3.015163022137159E-002  3.089637548783751E-002  3.165951596238853E-002 
 3.244150600665823E-002  3.324281120502282E-002  3.406390864178866E-002  3.490528718523872E-002 
 3.576744777871585E-002  3.665090373885044E-002  3.755618106119828E-002  3.848381873341065E-002 
 3.943436905612699E-002  4.040839797181220E-002  4.140648540171660E-002  4.242922559113926E-002 
 4.347722746323849E-002  4.455111498158251E-002  4.565152752162548E-002  4.677912025141162E-002 
 4.793456452161963E-002  4.911854826530354E-002  5.033177640745709E-002  5.157497128472096E-002 
 5.284887307545530E-002  5.415424024041865E-002  5.549184997435622E-002  5.686249866872425E-002 
 5.826700238584073E-002  5.970619734477019E-002  6.118094041918627E-002  6.269210964754163E-002 
 6.424060475583555E-002  6.582734769330364E-002  6.745328318132753E-002  6.911937927590828E-002 
 7.082662794402110E-002  7.257604565423889E-002  7.436867398189835E-002  7.620558022925228E-002 
 7.808785806091592E-002  8.001662815501935E-002  8.199303887044929E-002  8.401826693054845E-002 
 8.609351812373406E-002  8.822002802138876E-002  9.039906271351721E-002  9.263191956254163E-002 
 9.491992797573626E-002  9.726445019673771E-002  9.966688211659731E-002  1.021286541048753E-001 
 1.046512318612653E-001  1.072361172882390E-001  1.098848493852584E-001  1.125990051650741E-001 
 1.153802005926530E-001  1.182300915472897E-001  1.211503748085087E-001  1.241427890662781E-001 
 1.272091159562162E-001  1.303511811203355E-001  1.335708552940059E-001  1.368700554197685E-001 
 1.402507457886373E-001  1.437149392096158E-001  1.472646982080943E-001  1.509021362538335E-001 
 1.546294190193049E-001  1.584487656690812E-001  1.623624501811077E-001  1.663728027005806E-001 
 1.704822109272856E-001  1.746931215371894E-001  1.790080416391568E-001  1.834295402676448E-001 
 1.879602499122545E-001  1.926028680850887E-001  1.973601589267893E-001  2.022349548522806E-001 
 2.072301582371332E-001  2.123487431455905E-001  2.175937571012862E-001  2.229683229016875E-001 
 2.284756404773598E-001  2.341189887971485E-001  2.399017278204383E-001  2.458273004976028E-001 
 2.518992348198920E-001  2.581211459199459E-001  2.644967382241572E-001  2.710298076582987E-001 
 2.777242439074658E-001  2.845840327319914E-001  2.916132583404568E-001  2.988161058214578E-001 
 3.061968636352481E-001  3.137599261670408E-001  3.215097963433839E-001  3.294510883130491E-001 
 3.375885301943859E-001  3.459269668901902E-001  3.544713629723806E-001  3.632268056378010E-001 
 3.721985077370518E-001  3.813918108781553E-001  3.908121886068369E-001  4.004652496654474E-001 
 4.103567413321608E-001  4.204925528430823E-001  4.308787188982930E-001  4.415214232550989E-001 
 4.524270024094860E-001  4.636019493690016E-001  4.750529175184280E-001  4.867867245811294E-001 
 4.988103566782893E-001  5.111309724882374E-001  5.237559075086958E-001  5.366926784241626E-001 
 5.499489875812419E-001  5.635327275744809E-001  5.774519859455679E-001  5.917150499984305E-001 
 6.063304117334055E-001  6.213067729032125E-001  6.366530501939275E-001  6.523783805337164E-001 
 6.684921265328865E-001  6.850038820582602E-001  7.019234779450916E-001  7.192609878503301E-001 
 7.370267342502350E-001  7.552312945862193E-001  7.738855075625086E-001  7.930004795993018E-001 
 8.125875914453838E-001  8.326585049540969E-001  8.532251700264740E-001  8.742998317261247E-001 
 8.958950375697494E-001  9.180236449977273E-001  9.406988290291648E-001  9.639340901061912E-001 
 9.877432621318191E-001  1.012140520706466E+000  1.037140391567925E+000  1.062757759239637E+000 
 1.089007875892875E+000  1.115906370427405E+000  1.143469257776971E+000  1.171712948444061E+000 
 1.200654258270624E+000  1.230310418449926E+000  1.260699085785633E+000  1.291838353204524E+000 
 1.323746760528698E+000  1.356443305513745E+000  1.389947455159946E+000  1.424279157302390E+000 
 1.459458852487765E+000  1.495507486144192E+000  1.532446521051960E+000  1.570297950121939E+000 