<UPF version="2.0.1">
  <PP_INFO>
    Generated using "atomic" code by A. Dal Corso  v.5.0.2 svn rev. 9415
    Author: ADC
    Generation date: 11Sep2012
    Pseudopotential type: USPP
    Element:  F
    Functional: PBESOL

    Suggested minimum cutoff for wavefunctions:  48. Ry
    Suggested minimum cutoff for charge density: 316. Ry
    The Pseudo was generated with a Scalar-Relativistic Calculation
    L component and cutoff radius for Local Potential:  2   1.2000

    Valence configuration: 
    nl pn  l   occ       Rcut    Rcut US       E pseu
    2S  1  0  2.00      1.200      1.400    -2.184409
    2P  2  1  5.00      1.200      1.400    -0.812285
    Generation configuration:
    2S  1  0  2.00      1.200      1.400    -2.184409
    2S  1  0  0.00      1.200      1.400     0.050000
    2P  2  1  5.00      1.200      1.400    -0.812282
    2P  2  1  0.00      1.200      1.400     0.050000
    3D  3  2 -2.00      1.200      1.200     0.150000

    Pseudization used: rrkj
<PP_INPUTFILE>
 &input
   title='F',
   zed=9.0,
   rel=1,
   config='1s2.0 2s2.0 2p5.0 3d-2.0',
   iswitch=3,
   dft='PBESOL'
 /
 &inputp
   pseudotype=3,
   file_pseudopw='F.pbesol-n-rrkjus_psl.0.1.UPF',
   author='ADC',
   lloc=2,
   which_augfun ='PSQ',
   rmatch_augfun=0.90,
   nlcc=.true.,
   new_core_ps=.true.,
   rcore=0.5
 /
5
2S  1  0  2.00  0.00  1.20  1.40  0.0
2S  1  0  0.00  0.05  1.20  1.40  0.0
2P  2  1  5.00  0.00  1.20  1.40  0.0
2P  2  1  0.00  0.05  1.20  1.40  0.0
3D  3  2 -2.00  0.15  1.20  1.20  0.0
</PP_INPUTFILE>
  </PP_INFO>
  <!--                               -->
  <!-- END OF HUMAN READABLE SECTION -->
  <!--                               -->
  <PP_HEADER generated='Generated using "atomic" code by A. Dal Corso  v.5.0.2 svn rev. 9415'
             author="ADC"
             date="11Sep2012"
             comment=""
             element=" F"
             pseudo_type="USPP"
             relativistic="scalar"
             is_ultrasoft="T"
             is_paw="F"
             is_coulomb="F"
             has_so="F"
             has_wfc="F"
             has_gipaw="F"
             paw_as_gipaw="F"
             core_correction="T"
             functional="PBESOL"
             z_valence="7.000000000000000E+000"
             total_psenergy="-4.912714841214315E+001"
             wfc_cutoff="4.778943649479591E+001"
             rho_cutoff="3.161402390858302E+002"
             l_max="2"
             l_max_rho="4"
             l_local="2"
             mesh_size="1105"
             number_of_wfc="2"
             number_of_proj="4"/>
  <PP_MESH dx="1.250000000000000E-002" mesh="1105" xmin="-7.000000000000000E+000" rmax="1.000000000000000E+002"
zmesh="9.000000000000000E+000">
    <PP_R type="real" size="1105" columns="4">
 1.013202183949463E-004  1.025946698521136E-004  1.038851519351758E-004  1.051918662845838E-004 
 1.065150170771133E-004  1.078548110577677E-004  1.092114575720821E-004  1.105851685988346E-004 
 1.119761587831678E-004  1.133846454701283E-004  1.148108487386263E-004  1.162549914358243E-004 
 1.177172992119567E-004  1.191980005555885E-004  1.206973268293175E-004  1.222155123059243E-004 
 1.237527942049781E-004  1.253094127299036E-004  1.268856111055120E-004  1.284816356160064E-004 
 1.300977356434638E-004  1.317341637068014E-004  1.333911755012334E-004  1.350690299382239E-004 
 1.367679891859423E-004  1.384883187102277E-004  1.402302873160683E-004  1.419941671896027E-004 
 1.437802339406498E-004  1.455887666457733E-004  1.474200478918879E-004  1.492743638204141E-004 
 1.511520041719882E-004  1.530532623317352E-004  1.549784353751110E-004  1.569278241143202E-004 
 1.589017331453194E-004  1.609004708954106E-004  1.629243496714337E-004  1.649736857085652E-004 
 1.670487992197303E-004  1.691500144456368E-004  1.712776597054389E-004  1.734320674480369E-004 
 1.756135743040241E-004  1.778225211382849E-004  1.800592531032563E-004  1.823241196928584E-004 
 1.846174747971038E-004  1.869396767573935E-004  1.892910884225082E-004  1.916720772053047E-004 
 1.940830151401244E-004  1.965242789409245E-004  1.989962500601411E-004  2.014993147482906E-004 
 2.040338641143230E-004  2.066002941867334E-004  2.091990059754419E-004  2.118304055344530E-004 
 2.144949040253010E-004  2.171929177812963E-004  2.199248683725774E-004  2.226911826719821E-004 
 2.254922929217482E-004  2.283286368010510E-004  2.312006574943921E-004  2.341088037608482E-004 
 2.370535300041898E-004  2.400352963438838E-004  2.430545686869872E-004  2.461118188009463E-004 
 2.492075243873115E-004  2.523421691563785E-004  2.555162429027707E-004  2.587302415819682E-004 
 2.619846673878036E-004  2.652800288309304E-004  2.686168408182782E-004  2.719956247335092E-004 
 2.754169085184843E-004  2.788812267557554E-004  2.823891207520954E-004  2.859411386230778E-004 
 2.895378353787220E-004  2.931797730102135E-004  2.968675205777167E-004  3.006016542992918E-004 
 3.043827576409298E-004  3.082114214077210E-004  3.120882438361681E-004  3.160138306876630E-004 
 3.199887953431381E-004  3.240137588989075E-004  3.280893502637163E-004  3.322162062570067E-004 
 3.363949717084239E-004  3.406262995585714E-004  3.449108509610343E-004  3.492492953856867E-004 
 3.536423107232963E-004  3.580905833914474E-004  3.625948084417942E-004  3.671556896686647E-004 
 3.717739397190302E-004  3.764502802038568E-004  3.811854418108594E-004  3.859801644186726E-004 
 3.908351972124587E-004  3.957512988009700E-004  4.007292373350812E-004  4.057697906278159E-004 
 4.108737462758813E-004  4.160419017827311E-004  4.212750646831787E-004  4.265740526695737E-004 
 4.319396937195700E-004  4.373728262254981E-004  4.428742991253656E-004  4.484449720355065E-004 
 4.540857153848963E-004  4.597974105511597E-004  4.655809499982866E-004  4.714372374160822E-004 
 4.773671878613711E-004  4.833717279009743E-004  4.894517957564896E-004  4.956083414508891E-004 
 5.018423269569629E-004  5.081547263476303E-004  5.145465259481384E-004  5.210187244901790E-004 
 5.275723332679419E-004  5.342083762961317E-004  5.409278904699737E-004  5.477319257272280E-004 
 5.546215452122464E-004  5.615978254420905E-004  5.686618564747390E-004  5.758147420794139E-004 
 5.830575999090427E-004  5.903915616748972E-004  5.978177733234244E-004  6.053373952153028E-004 
 6.129516023067524E-004  6.206615843331221E-004  6.284685459947898E-004  6.363737071453983E-004 
 6.443783029824601E-004  6.524835842403613E-004  6.606908173857882E-004  6.690012848156176E-004 
 6.774162850572931E-004  6.859371329717224E-004  6.945651599587291E-004  7.033017141650830E-004 
 7.121481606951537E-004  7.211058818242097E-004  7.301762772144014E-004  7.393607641334637E-004 
 7.486607776761630E-004  7.580777709885364E-004  7.676132154949481E-004  7.772686011280012E-004 
 7.870454365613473E-004  7.969452494454110E-004  8.069695866460990E-004  8.171200144864929E-004 
 8.273981189915931E-004  8.378055061361417E-004  8.483438020955513E-004  8.590146535000079E-004 
 8.698197276917526E-004  8.807607129856105E-004  8.918393189327957E-004  9.030572765880234E-004 
 9.144163387800033E-004  9.259182803853122E-004  9.375648986057256E-004  9.493580132490386E-004 
 9.612994670134037E-004  9.733911257752697E-004  9.856348788809177E-004  9.980326394416796E-004 
 1.010586344632869E-003  1.023297955996460E-003  1.036169459747592E-003  1.049202867084912E-003 
 1.062400214504834E-003  1.075763564119744E-003  1.089295003980203E-003  1.102996648401224E-003 
 1.116870638292621E-003  1.130919141493541E-003  1.145144353111194E-003  1.159548495863834E-003 
 1.174133820428073E-003  1.188902605790547E-003  1.203857159604017E-003  1.218999818547943E-003 
 1.234332948693589E-003  1.249858945873741E-003  1.265580236057042E-003  1.281499275727069E-003 
 1.297618552266161E-003  1.313940584344069E-003  1.330467922311514E-003  1.347203148598678E-003 
 1.364148878118715E-003  1.381307758676344E-003  1.398682471381555E-003  1.416275731068563E-003 
 1.434090286719986E-003  1.452128921896387E-003  1.470394455171216E-003  1.488889740571203E-003 
 1.507617668022326E-003  1.526581163801349E-003  1.545783190993069E-003  1.565226749953304E-003 
 1.584914878777695E-003  1.604850653776431E-003  1.625037189954914E-003  1.645477641500489E-003 
 1.666175202275302E-003  1.687133106315327E-003  1.708354628335715E-003  1.729843084242454E-003 
 1.751601831650498E-003  1.773634270408403E-003  1.795943843129542E-003  1.818534035730048E-003 
 1.841408377973473E-003  1.864570444022329E-003  1.888023852996565E-003  1.911772269539043E-003 
 1.935819404388168E-003  1.960169014957685E-003  1.984824905923782E-003  2.009790929819590E-003 
 2.035070987637131E-003  2.060669029436876E-003  2.086589054964934E-003  2.112835114278028E-003 
 2.139411308376326E-003  2.166321789844222E-003  2.193570763499198E-003  2.221162487048825E-003 
 2.249101271756043E-003  2.277391483112806E-003  2.306037541522194E-003  2.335043922989115E-003 
 2.364415159819686E-003  2.394155841329419E-003  2.424270614560308E-003  2.454764185006938E-003 
 2.485641317351734E-003  2.516906836209441E-003  2.548565626880992E-003  2.580622636116842E-003 
 2.613082872889901E-003  2.645951409178209E-003  2.679233380757430E-003  2.712933988003337E-003 
 2.747058496704377E-003  2.781612238884461E-003  2.816600613636105E-003  2.852029087964048E-003 
 2.887903197639483E-003  2.924228548065035E-003  2.961010815150609E-003  2.998255746200276E-003 
 3.035969160810286E-003  3.074156951778398E-003  3.112825086024647E-003  3.151979605523678E-003 
 3.191626628248826E-003  3.231772349128053E-003  3.272423041011921E-003  3.313585055653745E-003 
 3.355264824702056E-003  3.397468860705566E-003  3.440203758130766E-003  3.483476194392321E-003 
 3.527292930896439E-003  3.571660814097341E-003  3.616586776567048E-003  3.662077838078596E-003 
 3.708141106702898E-003  3.754783779919395E-003  3.802013145740670E-003  3.849836583851225E-003 
 3.898261566760560E-003  3.947295660970774E-003  3.996946528158852E-003  4.047221926373804E-003 
 4.098129711248890E-003  4.149677837229069E-003  4.201874358813898E-003  4.254727431816073E-003 
 4.308245314635779E-003  4.362436369551091E-003  4.417309064024591E-003  4.472871972026428E-003 
 4.529133775374025E-003  4.586103265088616E-003  4.643789342768880E-003  4.702201021981813E-003 
 4.761347429671132E-003  4.821237807583375E-003  4.881881513711935E-003  4.943288023759280E-003 
 5.005466932617535E-003  5.068427955867712E-003  5.132180931297792E-003  5.196735820439887E-003 
 5.262102710126770E-003  5.328291814067941E-003  5.395313474445553E-003  5.463178163530398E-003 
 5.531896485318216E-003  5.601479177186597E-003  5.671937111572713E-003  5.743281297672157E-003 
 5.815522883159153E-003  5.888673155928423E-003  5.962743545858904E-003  6.037745626599722E-003 
 6.113691117378584E-003  6.190591884832933E-003  6.268459944864150E-003  6.347307464515032E-003 
 6.427146763870943E-003  6.507990317984840E-003  6.589850758826525E-003  6.672740877256438E-003 
 6.756673625024219E-003  6.841662116792471E-003  6.927719632185940E-003  7.014859617866486E-003 
 7.103095689634175E-003  7.192441634554728E-003  7.282911413113818E-003  7.374519161398405E-003 
 7.467279193305528E-003  7.561206002778911E-003  7.656314266073621E-003  7.752618844049296E-003 
 7.850134784492181E-003  7.948877324466357E-003  8.048861892694607E-003  8.150104111969127E-003 
 8.252619801592656E-003  8.356424979850270E-003  8.461535866512259E-003  8.567968885368524E-003 
 8.675740666794796E-003  8.784868050351188E-003  8.895368087413398E-003  9.007258043837027E-003 
 9.120555402655422E-003  9.235277866811395E-003  9.351443361923378E-003  9.469070039086321E-003 
 9.588176277707833E-003  9.708780688380042E-003  9.830902115787479E-003  9.954559641651635E-003 
 1.007977258771251E-002  1.020656051874765E-002  1.033494324562928E-002  1.046494082841963E-002 
 1.059657357950552E-002  1.072986206677210E-002  1.086482711681667E-002  1.100148981820292E-002 
 1.113987152475597E-002  1.127999385889901E-002  1.142187871503183E-002  1.156554826295185E-002 
 1.171102495131826E-002  1.185833151115958E-002  1.200749095942548E-002  1.215852660258322E-002 
 1.231146204025933E-002  1.246632116892708E-002  1.262312818564042E-002  1.278190759181471E-002 
 1.294268419705522E-002  1.310548312303362E-002  1.327032980741329E-002  1.343725000782408E-002 
 1.360626980588688E-002  1.377741561128903E-002  1.395071416591081E-002  1.412619254800395E-002 
 1.430387817642269E-002  1.448379881490797E-002  1.466598257642559E-002  1.485045792755895E-002 
 1.503725369295697E-002  1.522639905983805E-002  1.541792358255059E-002  1.561185718719091E-002 
 1.580823017627930E-002  1.600707323349481E-002  1.620841742846971E-002  1.641229422164410E-002 
 1.661873546918168E-002  1.682777342794741E-002  1.703944076054761E-002  1.725377054043367E-002 
 1.747079625706974E-002  1.769055182116559E-002  1.791307156997521E-002  1.813839027266205E-002 
 1.836654313573184E-002  1.859756580853362E-002  1.883149438883002E-002  1.906836542843765E-002 
 1.930821593893835E-002  1.955108339746239E-002  1.979700575254428E-002  2.004602143005232E-002 
 2.029816933919275E-002  2.055348887858936E-002  2.081201994243967E-002  2.107380292674837E-002 
 2.133887873563936E-002  2.160728878774707E-002  2.187907502268823E-002  2.215427990761502E-002 
 2.243294644385061E-002  2.271511817360823E-002  2.300083918679476E-002  2.329015412789976E-002 
 2.358310820297145E-002  2.387974718668007E-002  2.418011742947034E-002  2.448426586480378E-002 
 2.479224001649220E-002  2.510408800612343E-002  2.541985856058028E-002  2.573960101965432E-002 
 2.606336534375531E-002  2.639120212171757E-002  2.672316257870469E-002  2.705929858421342E-002 
 2.739966266017851E-002  2.774430798917930E-002  2.809328842274961E-002  2.844665848979223E-002 
 2.880447340509907E-002  2.916678907797860E-002  2.953366212099186E-002  2.990514985879821E-002 
 3.028131033711252E-002  3.066220233177480E-002  3.104788535793416E-002  3.143841967934811E-002 
 3.183386631779890E-002  3.223428706262838E-002  3.263974448039255E-002  3.305030192463786E-002 
 3.346602354580026E-002  3.388697430122881E-002  3.431321996533555E-002  3.474482713987265E-002 
 3.518186326433927E-002  3.562439662651899E-002  3.607249637314997E-002  3.652623252072935E-002 
 3.698567596645329E-002  3.745089849929494E-002  3.792197281122155E-002  3.839897250855272E-002 
 3.888197212346171E-002  3.937104712562098E-002  3.986627393399464E-002  4.036772992877905E-002 
 4.087549346349359E-002  4.138964387722367E-002  4.191026150701745E-002  4.243742770043879E-002 
 4.297122482827795E-002  4.351173629742211E-002  4.405904656388811E-002  4.461324114601853E-002 
 4.517440663784437E-002  4.574263072261542E-002  4.631800218650093E-002  4.690061093246284E-002 
 4.749054799430298E-002  4.808790555088750E-002  4.869277694054995E-002  4.930525667567554E-002 
 4.992544045746908E-002  5.055342519090819E-002  5.118930899988512E-002  5.183319124253874E-002 
 5.248517252677941E-002  5.314535472600935E-002  5.381384099504029E-002  5.449073578621182E-002 
 5.517614486571221E-002  5.587017533010455E-002  5.657293562306103E-002  5.728453555230714E-002 
 5.800508630677960E-002  5.873470047399974E-002  5.947349205766558E-002  6.022157649546525E-002 
 6.097907067711407E-002  6.174609296261908E-002  6.252276320077291E-002  6.330920274788034E-002 
 6.410553448672075E-002  6.491188284574845E-002  6.572837381853505E-002  6.655513498345619E-002 
 6.739229552362594E-002  6.823998624708200E-002  6.909833960722449E-002  6.996748972351226E-002 
 7.084757240241930E-002  7.173872515865468E-002  7.264108723664971E-002  7.355479963231491E-002 
 7.448000511507108E-002  7.541684825015721E-002  7.636547542121913E-002  7.732603485318246E-002 
 7.829867663541262E-002  7.928355274516699E-002  8.028081707134141E-002  8.129062543851576E-002 
 8.231313563130199E-002  8.334850741899801E-002  8.439690258055210E-002  8.545848492984123E-002 
 8.653342034126721E-002  8.762187677567519E-002  8.872402430659748E-002  8.984003514682809E-002 
 9.097008367533138E-002  9.211434646448893E-002  9.327300230768971E-002  9.444623224726650E-002 
 9.563421960278425E-002  9.683714999968428E-002  9.805521139828838E-002  9.928859412316843E-002 
 1.005374908928844E-001  1.018020968500976E-001  1.030826095920615E-001  1.043792292014973E-001 
 1.056921582778571E-001  1.070216019689802E-001  1.083677680031481E-001  1.097308667215425E-001 
 1.111111111111111E-001  1.125087168378483E-001  1.139239022804922E-001  1.153568885646473E-001 
 1.168078995973361E-001  1.182771621019844E-001  1.197649056538480E-001  1.212713627158836E-001 
 1.227967686750720E-001  1.243413618791979E-001  1.259053836740918E-001  1.274890784413414E-001 
 1.290926936364759E-001  1.307164798276323E-001  1.323606907347065E-001  1.340255832689979E-001 
 1.357114175733522E-001  1.374184570628095E-001  1.391469684657628E-001  1.408972218656356E-001 
 1.426694907430824E-001  1.444640520187213E-001  1.462811860964024E-001  1.481211769070226E-001 
 1.499843119528893E-001  1.518708823526440E-001  1.537811828867502E-001  1.557155120435526E-001 
 1.576741720659176E-001  1.596574689984584E-001  1.616657127353557E-001  1.636992170687795E-001 
 1.657582997379190E-001  1.678432824786304E-001  1.699544910737089E-001  1.720922554037926E-001 
 1.742569094989077E-001  1.764487915906604E-001  1.786682441650871E-001  1.809156140161679E-001 
 1.831912523000142E-001  1.854955145897381E-001  1.878287609310102E-001  1.901913558983184E-001 
 1.925836686519329E-001  1.950060729955887E-001  1.974589474348932E-001  1.999426752364677E-001 
 2.024576444878344E-001  2.050042481580557E-001  2.075828841591358E-001  2.101939554081967E-001 
 2.128378698904330E-001  2.155150407228617E-001  2.182258862188721E-001  2.209708299535880E-001 
 2.237503008300530E-001  2.265647331462462E-001  2.294145666629431E-001  2.323002466724285E-001 
 2.352222240680750E-001  2.381809554147955E-001  2.411769030203826E-001  2.442105350077448E-001 
 2.472823253880521E-001  2.503927541348009E-001  2.535423072588116E-001  2.567314768841672E-001 
 2.599607613251103E-001  2.632306651639046E-001  2.665416993296776E-001  2.698943811782543E-001 
 2.732892345729945E-001  2.767267899666480E-001  2.802075844842389E-001  2.837321620069919E-001 
 2.873010732573163E-001  2.909148758848558E-001  2.945741345536231E-001  2.982794210302303E-001 
 3.020313142732272E-001  3.058304005235675E-001  3.096772733962057E-001  3.135725339728555E-001 
 3.175167908959073E-001  3.215106604635290E-001  3.255547667259672E-001  3.296497415830520E-001 
 3.337962248829369E-001  3.379948645220739E-001  3.422463165464479E-001  3.465512452540884E-001 
 3.509103232988632E-001  3.553242317955860E-001  3.597936604264403E-001  3.643193075487415E-001 
 3.689018803040612E-001  3.735420947287145E-001  3.782406758656464E-001  3.829983578777197E-001 
 3.878158841624268E-001  3.926940074680526E-001  3.976334900112867E-001  4.026351035963268E-001 
 4.076996297354719E-001  4.128278597712338E-001  4.180205949999905E-001  4.232786467971847E-001 
 4.286028367441082E-001  4.339939967562728E-001  4.394529692133975E-001  4.449806070910365E-001 
 4.505777740938529E-001  4.562453447905790E-001  4.619842047506679E-001  4.677952506826622E-001 
 4.736793905743136E-001  4.796375438344494E-001  4.856706414366396E-001  4.917796260646597E-001 
 4.979654522597849E-001  5.042290865699453E-001  5.105715077007433E-001  5.169937066683854E-001 
 5.234966869545272E-001  5.300814646630669E-001  5.367490686789204E-001  5.435005408287785E-001 
 5.503369360439014E-001  5.572593225249514E-001  5.642687819088980E-001  5.713664094380324E-001 
 5.785533141310945E-001  5.858306189565655E-001  5.931994610081310E-001  6.006609916823519E-001 
 6.082163768585783E-001  6.158667970811138E-001  6.236134477436839E-001  6.314575392762164E-001 
 6.394002973339701E-001  6.474429629890532E-001  6.555867929243353E-001  6.638330596298135E-001 
 6.721830516014389E-001  6.806380735424429E-001  6.891994465672080E-001  6.978685084076851E-001 
 7.066466136224254E-001  7.155351338082293E-001  7.245354578144569E-001  7.336489919600483E-001 
 7.428771602532525E-001  7.522214046141414E-001  7.616831850999092E-001  7.712639801330039E-001 
 7.809652867321445E-001  7.907886207462219E-001  8.007355170911628E-001  8.108075299897597E-001 
 8.210062332145167E-001  8.313332203335650E-001  8.417901049596499E-001  8.523785210022697E-001 
 8.631001229229753E-001  8.739565859938768E-001  8.849496065594200E-001  8.960809023014306E-001 
 9.073522125075163E-001  9.187652983428305E-001  9.303219431252516E-001  9.420239526040424E-001 
 9.538731552419885E-001  9.658714025011113E-001  9.780205691319570E-001  9.903225534665263E-001 
 1.002779277714903E+000  1.015392688265592E+000  1.028164755989654E+000  1.041097476548660E+000 
 1.054192870706503E+000  1.067452984645168E+000  1.080879890284432E+000  1.094475685605620E+000 
 1.108242494979414E+000  1.122182469497784E+000  1.136297787310112E+000  1.150590653963522E+000 
 1.165063302747508E+000  1.179717995042890E+000  1.194557020675151E+000  1.209582698272239E+000 
 1.224797375626845E+000  1.240203430063263E+000  1.255803268808843E+000  1.271599329370125E+000 
 1.287594079913711E+000  1.303790019651913E+000  1.320189679233266E+000  1.336795621137949E+000 
 1.353610440078164E+000  1.370636763403585E+000  1.387877251511868E+000  1.405334598264358E+000 
 1.423011531407005E+000  1.440910812996570E+000  1.459035239832225E+000  1.477387643892532E+000 
 1.495970892777968E+000  1.514787890158974E+000  1.533841576229677E+000  1.553134928167294E+000 
 1.572670960597312E+000  1.592452726064550E+000  1.612483315510103E+000  1.632765858754327E+000 
 1.653303524985872E+000  1.674099523256866E+000  1.695157102984353E+000  1.716479554458003E+000 
 1.738070209354241E+000  1.759932441256826E+000  1.782069666183964E+000  1.804485343122095E+000 
 1.827182974566340E+000  1.850166107067794E+000  1.873438331787672E+000  1.897003285058429E+000 
 1.920864648951963E+000  1.945026151854921E+000  1.969491569051294E+000  1.994264723312295E+000 
 2.019349485493674E+000  2.044749775140564E+000  2.070469561099891E+000  2.096512862140543E+000 
 2.122883747581296E+000  2.149586337926646E+000  2.176624805510669E+000  2.204003375148926E+000 
 2.231726324798630E+000  2.259797986227070E+000  2.288222745688449E+000  2.317005044609270E+000 
 2.346149380282292E+000  2.375660306569261E+000  2.405542434612453E+000  2.435800433555164E+000 
 2.466439031271296E+000  2.497463015104069E+000  2.528877232614081E+000  2.560686592336733E+000 
 2.592896064549191E+000  2.625510682047028E+000  2.658535540930572E+000  2.691975801401220E+000 
 2.725836688567708E+000  2.760123493262538E+000  2.794841572868711E+000  2.829996352156789E+000 
 2.865593324132563E+000  2.901638050895333E+000  2.938136164506978E+000  2.975093367872018E+000 
 3.012515435628656E+000  3.050408215051122E+000  3.088777626963299E+000  3.127629666663851E+000 
 3.166970404863035E+000  3.206805988631226E+000  3.247142642359438E+000  3.287986668731887E+000 
 3.329344449710780E+000  3.371222447533551E+000  3.413627205722548E+000  3.456565350107518E+000 
 3.500043589860885E+000  3.544068718546056E+000  3.588647615178969E+000  3.633787245302908E+000 
 3.679494662076924E+000  3.725777007377885E+000  3.772641512916395E+000  3.820095501366803E+000 
 3.868146387511339E+000  3.916801679398727E+000  3.966068979517323E+000  4.015955985982993E+000 
 4.066470493742004E+000  4.117620395788955E+000  4.169413684400111E+000  4.221858452382200E+000 
 4.274962894336904E+000  4.328735307941336E+000  4.383184095244506E+000  4.438317763980215E+000 
 4.494144928896382E+000  4.550674313101089E+000  4.607914749425646E+000  4.665875181804668E+000 
 4.724564666673642E+000  4.783992374383995E+000  4.844167590635945E+000  4.905099717929477E+000 
 4.966798277033429E+000  5.029272908473196E+000  5.092533374037057E+000  5.156589558301442E+000 
 5.221451470175484E+000  5.287129244464856E+000  5.353633143455424E+000  5.420973558516717E+000 
 5.489161011725576E+000  5.558206157510313E+000  5.628119784315407E+000  5.698912816287301E+000 
 5.770596314981277E+000  5.843181481089828E+000  5.916679656192855E+000  5.991102324529730E+000 
 6.066461114793804E+000  6.142767801949387E+000  6.220034309071573E+000  6.298272709209319E+000 
 6.377495227271805E+000  6.457714241938665E+000  6.538942287594162E+000  6.621192056285666E+000 
 6.704476399706895E+000  6.788808331205931E+000  6.874201027818653E+000  6.960667832327657E+000 
 7.048222255347039E+000  7.136877977433550E+000  7.226648851224112E+000  7.317548903600411E+000 
 7.409592337880579E+000  7.502793536038461E+000  7.597167060950913E+000  7.692727658673182E+000 
 7.789490260743095E+000  7.887469986514104E+000  7.986682145517674E+000  8.087142239855527E+000 
 8.188865966621760E+000  8.291869220355657E+000  8.396168095525187E+000  8.501778889041766E+000 
 8.608718102806774E+000  8.717002446289905E+000  8.826648839140148E+000  8.937674413829479E+000 
 9.050096518329793E+000  9.163932718823681E+000  9.279200802449031E+000  9.395918780078444E+000 
 9.514104889133407E+000  9.633777596433879E+000  9.754955601083880E+000  9.877657837393148E+000 
 1.000190347783576E+001  1.012771193604583E+001  1.025510286985088E+001  1.038409618434353E+001 
 1.051471203499157E+001  1.064697083078743E+001  1.078089323743705E+001  1.091650018058890E+001 
 1.105381284910377E+001  1.119285269836546E+001  1.133364145363330E+001  1.147620111343676E+001 
 1.162055395301269E+001  1.176672252778600E+001  1.191472967689384E+001  1.206459852675440E+001 
 1.221635249468040E+001  1.237001529253804E+001  1.252561093045215E+001  1.268316372055767E+001 
 1.284269828079863E+001  1.300423953877466E+001  1.316781273563593E+001  1.333344343002728E+001 
 1.350115750208166E+001  1.367098115746406E+001  1.384294093146616E+001  1.401706369315246E+001 
 1.419337664955878E+001  1.437190734994322E+001  1.455268369009096E+001  1.473573391667296E+001 
 1.492108663165950E+001  1.510877079678946E+001  1.529881573809541E+001  1.549125115048613E+001 
 1.568610710238633E+001  1.588341404043489E+001  1.608320279424235E+001  1.628550458120791E+001 
 1.649035101139740E+001  1.669777409248233E+001  1.690780623474107E+001  1.712048025612321E+001 
 1.733582938737723E+001  1.755388727724305E+001  1.777468799770963E+001  1.799826604933871E+001 
 1.822465636665578E+001  1.845389432360846E+001  1.868601573909394E+001  1.892105688255568E+001 
 1.915905447965048E+001  1.940004571798716E+001  1.964406825293694E+001  1.989116021351741E+001 
 2.014136020835015E+001  2.039470733169333E+001  2.065124116955048E+001  2.091100180585561E+001 
 2.117402982873666E+001  2.144036633685740E+001  2.171005294583900E+001  2.198313179476286E+001 
 2.225964555275465E+001  2.253963742565166E+001  2.282315116275371E+001  2.311023106365896E+001 
 2.340092198518608E+001  2.369526934838289E+001  2.399331914562379E+001  2.429511794779602E+001 
 2.460071291157635E+001  2.491015178679970E+001  2.522348292391979E+001  2.554075528156432E+001 
 2.586201843418470E+001  2.618732257980207E+001  2.651671854785110E+001  2.685025780712186E+001 
 2.718799247380226E+001  2.752997531962115E+001  2.787625978009384E+001  2.822689996287192E+001 
 2.858195065619722E+001  2.894146733746298E+001  2.930550618188214E+001  2.967412407126468E+001 
 3.004737860290589E+001  3.042532809858562E+001  3.080803161368155E+001  3.119554894639661E+001 
 3.158794064710233E+001  3.198526802780037E+001  3.238759317170224E+001  3.279497894293026E+001 
 3.320748899634006E+001  3.362518778746665E+001  3.404814058259606E+001  3.447641346896293E+001 
 3.491007336507713E+001  3.534918803117979E+001  3.579382607983072E+001  3.624405698662981E+001 
 3.669995110107210E+001  3.716157965754056E+001  3.762901478643639E+001  3.810232952544938E+001 
 3.858159783097057E+001  3.906689458964765E+001  3.955829563008657E+001  4.005587773469975E+001 
 4.055971865170321E+001  4.106989710726547E+001  4.158649281780802E+001  4.210958650246172E+001 
 4.263925989567914E+001  4.317559576000542E+001  4.371867789901071E+001  4.426859117038399E+001 
 4.482542149919279E+001  4.538925589130895E+001  4.596018244700320E+001  4.653829037471159E+001 
 4.712367000497384E+001  4.771641280454821E+001  4.831661139070318E+001  4.892435954568877E+001 
 4.953975223139084E+001  5.016288560416839E+001  5.079385702987877E+001  5.143276509909106E+001 
 5.207970964249078E+001  5.273479174647921E+001  5.339811376896770E+001  5.406977935537191E+001 
 5.474989345480631E+001  5.543856233648245E+001  5.613589360631439E+001  5.684199622373158E+001 
 5.755698051870466E+001  5.828095820898449E+001  5.901404241755790E+001  5.975634769032416E+001 
 6.050799001399216E+001  6.126908683420431E+001  6.203975707388733E+001  6.282012115183391E+001 
 6.361030100151910E+001  6.441042009015183E+001  6.522060343796765E+001  6.604097763776313E+001 
 6.687167087467580E+001  6.771281294621423E+001  6.856453528253819E+001  6.942697096699565E+001 
 7.030025475691713E+001  7.118452310467120E+001  7.207991417898656E+001  7.298656788653997E+001 
 7.390462589381798E+001  7.483423164925216E+001  7.577553040563284E+001  7.672866924280603E+001 
 7.769379709065397E+001  7.867106475236659E+001  7.966062492800444E+001  8.066263223835793E+001 
 8.167724324910822E+001  8.270461649528967E+001  8.374491250606236E+001  8.479829382979463E+001 
 8.586492505946110E+001  8.694497285836184E+001  8.803860598616245E+001  8.914599532526432E+001 
 9.026731390750489E+001  9.140273694119361E+001  9.255244183848987E+001  9.371660824312261E+001 
 9.489541805846129E+001  9.608905547593798E+001  9.729770700382733E+001  9.852156149638991E+001 
 9.976081018337982E+001
    </PP_R>
    <PP_RAB type="real" size="1105" columns="4">
 1.266502729936828E-006  1.282433373151420E-006  1.298564399189698E-006  1.314898328557297E-006 
 1.331437713463917E-006  1.348185138222096E-006  1.365143219651026E-006  1.382314607485432E-006 
 1.399701984789598E-006  1.417308068376604E-006  1.435135609232829E-006  1.453187392947804E-006 
 1.471466240149459E-006  1.489975006944857E-006  1.508716585366469E-006  1.527693903824053E-006 