<UPF version="2.0.1">
  <PP_INFO>
    Generated using FHI98PP, converted with fhi2upf.x v.5.0.1
    Author: Abinit web site
    Generation date: 10-Jul-2012, PG
    Pseudopotential type: SL
    Element: Fe
    Functional: SLA-PW

    Suggested minimum cutoff for wavefunctions:   0. Ry
    Suggested minimum cutoff for charge density:   0. Ry
    The Pseudo was generated with a Non-Relativistic Calculation
    L component and cutoff radius for Local Potential:  1   0.0000

    Valence configuration: 
    nl pn  l   occ       Rcut    Rcut US       E pseu
    4s  4  0  2.00      0.000      0.000     0.000000
    4p  4  1  0.00      0.000      0.000     0.000000
    3d  3  2  6.00      0.000      0.000     0.000000
    4f  4  3  0.00      0.000      0.000     0.000000

    Generation configuration: not available.
    Comment:
    iron, fhi98PP : Trouiller-Martins-type, LDA Ceperley/Alder Perdew/Wang (1992), l
  </PP_INFO>
  <!--                               -->
  <!-- END OF HUMAN READABLE SECTION -->
  <!--                               -->
  <PP_HEADER generated="Generated using FHI98PP, converted with fhi2upf.x v.5.0.1"
             author="Abinit web site"
             date="10-Jul-2012, PG"
             comment="iron, fhi98PP : Trouiller-Martins-type, LDA Ceperley/Alder Perdew/Wang (1992), l"
             element="Fe"
             pseudo_type="SL"
             relativistic="no"
             is_ultrasoft="F"
             is_paw="F"
             is_coulomb="F"
             has_so="F"
             has_wfc="F"
             has_gipaw="F"
             paw_as_gipaw="F"
             core_correction="F"
             functional="SLA-PW"
             z_valence="8.000000000000000E+000"
             total_psenergy="0.000000000000000E+000"
             wfc_cutoff="0.000000000000000E+000"
             rho_cutoff="0.000000000000000E+000"
             l_max="3"
             l_max_rho="0"
             l_local="1"
             mesh_size="521"
             number_of_wfc="4"
             number_of_proj="3"/>
  <PP_MESH dx="2.439988682353512E-002" mesh="521" xmin="-5.075173815233808E+000" rmax="7.784119540624800E+001"
zmesh="2.600000000000000E+001">
    <PP_R type="real" size="521" columns="4">
 2.403846153846200E-004  2.463221153846200E-004  2.524062716346200E-004  2.586407065439900E-004 
 2.650291319956300E-004  2.715753515559200E-004  2.782832627393500E-004  2.851568593290100E-004 
 2.922002337544400E-004  2.994175795281700E-004  3.068131937425200E-004  3.143914796279600E-004 
 3.221569491747700E-004  3.301142258193900E-004  3.382680471971300E-004  3.466232679628900E-004 
 3.551848626815800E-004  3.639579287898100E-004  3.729476896309200E-004  3.821594975648000E-004 
 3.915988371546600E-004  4.012713284323800E-004  4.111827302446600E-004  4.213389436817000E-004 
 4.317460155906400E-004  4.424101421757200E-004  4.533376726874700E-004  4.645351132028500E-004 
 4.760091304989600E-004  4.877665560222800E-004  4.998143899560300E-004  5.121598053879400E-004 
 5.248101525810300E-004  5.377729633497800E-004  5.510559555445200E-004  5.646670376464700E-004 
 5.786143134763300E-004  5.929060870192000E-004  6.075508673685700E-004  6.225573737925800E-004 
 6.379345409252500E-004  6.536915240861100E-004  6.698377047310300E-004  6.863826960378900E-004 
 7.033363486300301E-004  7.207087564411900E-004  7.385102627252900E-004  7.567514662146000E-004 
 7.754432274301000E-004  7.945966751476300E-004  8.142232130237701E-004  8.343345263854600E-004 
 8.549425891871800E-004  8.760596711401000E-004  8.976983450172600E-004  9.198714941391900E-004 
 9.425923200444300E-004  9.658743503495200E-004  9.897314468031600E-004  1.014177813539200E-003 
 1.039228005533600E-003  1.064896937270300E-003  1.091199891620900E-003  1.118152528943900E-003 
 1.145770896408800E-003  1.174071437550100E-003  1.203071002057600E-003  1.232786855808400E-003 
 1.263236691146900E-003  1.294438637418200E-003  1.326411271762500E-003  1.359173630175000E-003 
 1.392745218840300E-003  1.427146025745700E-003  1.462396532581600E-003  1.498517726936300E-003 
 1.535531114791700E-003  1.573458733327000E-003  1.612323164040200E-003  1.652147546192000E-003 
 1.692955590582900E-003  1.734771593670300E-003  1.777620452034000E-003  1.821527677199200E-003 
 1.866519410826100E-003  1.912622440273500E-003  1.959864214548200E-003  2.008272860647600E-003 
 2.057877200305600E-003  2.108706767153100E-003  2.160791824301800E-003  2.214163382362000E-003 
 2.268853217906400E-003  2.324893892388700E-003  2.382318771530700E-003  2.441162045187500E-003 
 2.501458747703600E-003  2.563244778771900E-003  2.626556924807500E-003  2.691432880850300E-003 
 2.757911273007300E-003  2.826031681450600E-003  2.895834663982400E-003  2.967361780182800E-003 
 3.040655616153300E-003  3.115759809872300E-003  3.192719077176100E-003  3.271579238382400E-003 
 3.352387245570400E-003  3.435191210536000E-003  3.520040433436200E-003  3.606985432142100E-003 
 3.696077972316000E-003  3.787371098232200E-003  3.880919164358600E-003  3.976777867718200E-003 
 4.075004281050900E-003  4.175656886792800E-003  4.278795611896600E-003  4.384481863510400E-003 
 4.492778565539200E-003  4.603750196108000E-003  4.717462825951800E-003  4.833984157752800E-003 
 4.953383566449300E-003  5.075732140540600E-003  5.201102724412000E-003  5.329569961705000E-003 
 5.461210339759100E-003  5.596102235151100E-003  5.734325960359400E-003  5.875963811580200E-003 
 6.021100117726300E-003  6.169821290634100E-003  6.322215876512800E-003  6.478374608662600E-003 
 6.638390461496600E-003  6.802358705895600E-003  6.970376965931200E-003  7.142545276989700E-003 
 7.318966145331300E-003  7.499744609121000E-003  7.684988300966300E-003  7.874807512000200E-003 
 8.069315257546599E-003  8.268627344407999E-003  8.472862439814899E-003  8.682142142078301E-003 
 8.896591052987599E-003  9.116336851996400E-003  9.341510372240701E-003  9.572245678435100E-003 
 9.808680146692400E-003  1.005095454631600E-002  1.029921312361000E-002  1.055360368776300E-002 
 1.081427769885100E-002  1.108139035801200E-002  1.135510069985500E-002  1.163557168714200E-002 
 1.192297030781400E-002  1.221746767441700E-002  1.251923912597500E-002  1.282846433238700E-002 
 1.314532740139700E-002  1.347001698821100E-002  1.380272640782000E-002  1.414365375009300E-002 
 1.449300199772000E-002  1.485097914706400E-002  1.521779833199600E-002  1.559367795079700E-002 
 1.597884179618100E-002  1.637351918854700E-002  1.677794511250400E-002  1.719236035678300E-002 
 1.761701165759600E-002  1.805215184553800E-002  1.849803999612300E-002  1.895494158402700E-002 
 1.942312864115300E-002  1.990287991858900E-002  2.039448105257800E-002  2.089822473457700E-002 
 2.141441088552100E-002  2.194334683439400E-002  2.248534750120300E-002  2.304073558448300E-002 
 2.360984175341900E-002  2.419300484472900E-002  2.479057206439400E-002  2.540289919438400E-002 
 2.603035080448600E-002  2.667330046935600E-002  2.733213099094900E-002  2.800723462642600E-002 
 2.869901332169900E-002  2.940787895074500E-002  3.013425356082800E-002  3.087856962378000E-002 
 3.164127029348800E-002  3.242280966973700E-002  3.322365306857900E-002  3.404427729937300E-002 
 3.488517094866800E-002  3.574683467110000E-002  3.662978148747600E-002  3.753453709021700E-002 
 3.846164015634500E-002  3.941164266820700E-002  4.038511024211200E-002  4.138262246509200E-002 
 4.240477323998000E-002  4.345217113900700E-002  4.452543976614000E-002  4.562521812836400E-002 
 4.675216101613500E-002  4.790693939323300E-002  4.909024079624600E-002  5.030276974391300E-002 
 5.154524815658800E-002  5.281841578605600E-002  5.412303065597100E-002  5.545986951317400E-002 
 5.682972829014900E-002  5.823342257891600E-002  5.967178811661500E-002  6.114568128309600E-002 
 6.265597961078800E-002  6.420358230717400E-002  6.578941079016200E-002  6.741440923667900E-002 
 6.907954514482501E-002  7.078580990990201E-002  7.253421941467600E-002  7.432581463421900E-002 
 7.616166225568401E-002  7.804285531339900E-002  7.997051383964000E-002  8.194578553147901E-002 
 8.396984643410700E-002  8.604390164102900E-002  8.816918601156300E-002  9.034696490604900E-002 
 9.257853493922800E-002  9.486522475222700E-002  9.720839580360700E-002  9.960944317995600E-002 
 1.020697964265000E-001  1.045909203982400E-001  1.071743161320700E-001  1.098215217405300E-001 
 1.125341133275300E-001  1.153137059267200E-001  1.181619544631000E-001  1.210805547383400E-001 
 1.240712444403800E-001  1.271358041780600E-001  1.302760585412600E-001  1.334938771872300E-001 
 1.367911759537500E-001  1.401699179998100E-001  1.436321149744000E-001  1.471798282142700E-001 
 1.508151699711600E-001  1.545403046694500E-001  1.583574501947900E-001  1.622688792146000E-001 
 1.662769205312000E-001  1.703839604683200E-001  1.745924442918900E-001  1.789048776658900E-001 
 1.833238281442400E-001  1.878519266994100E-001  1.924918692888800E-001  1.972464184603200E-001 
 2.021184049962900E-001  2.071107295996900E-001  2.122263646208100E-001  2.174683558269400E-001 
 2.228398242158700E-001  2.283439678740000E-001  2.339840638804900E-001  2.397634702583300E-001 
 2.456856279737100E-001  2.517540629846600E-001  2.579723883403900E-001  2.643443063323900E-001 
 2.708736106988000E-001  2.775641888830600E-001  2.844200243484800E-001  2.914451989498800E-001 
 2.986438953639500E-001  3.060203995794300E-001  3.135791034490500E-001  3.213245073042400E-001 
 3.292612226346500E-001  3.373939748337300E-001  3.457276060121200E-001  3.542670778806200E-001 
 3.630174747042700E-001  3.719840063294700E-001  3.811720112858100E-001  3.905869599645700E-001 
 4.002344578756900E-001  4.101202489852200E-001  4.202502191351500E-001  4.306303995477900E-001 
 4.412669704166200E-001  4.521662645859100E-001  4.633347713211900E-001  4.747791401728200E-001 
 4.865061849350900E-001  4.985228877029800E-001  5.108364030292500E-001  5.234540621840700E-001 
 5.363833775200200E-001  5.496320469447600E-001  5.632079585043001E-001  5.771191950793499E-001 
 5.913740391978100E-001  6.059809779660000E-001  6.209487081217600E-001  6.362861412123700E-001 
 6.520024089003100E-001  6.681068684001500E-001  6.846091080496300E-001  7.015189530184600E-001 
 7.188464711580100E-001  7.366019789956200E-001  7.547960478768100E-001  7.734395102593700E-001 
 7.925434661627700E-001  8.121192897769900E-001  8.321786362344800E-001  8.527334485494800E-001 
 8.737959647286500E-001  8.953787250574500E-001  9.174945795663600E-001  9.401566956816499E-001 
 9.633785660649899E-001  9.871740166468000E-001  1.011557214858000E+000  1.036542678065000E+000 
 1.062145282213200E+000  1.088380270683800E+000  1.115263263369700E+000  1.142810265975000E+000 
 1.171037679544500E+000  1.199962310229300E+000  1.229601379292000E+000  1.259972533360500E+000 
 1.291093854934500E+000  1.322983873151300E+000  1.355661574818200E+000  1.389146415716200E+000 
 1.423458332184400E+000  1.458617752989300E+000  1.494645611488200E+000  1.531563358091900E+000 
 1.569392973036800E+000  1.608156979470800E+000  1.647878456863700E+000  1.688581054748300E+000 
 1.730289006800600E+000  1.773027145268500E+000  1.816820915756700E+000  1.861696392375900E+000 
 1.907680293267500E+000  1.954799996511200E+000  2.003083556425100E+000  2.052559720268800E+000 
 2.103257945359400E+000  2.155208416609800E+000  2.208442064500000E+000  2.262990583493200E+000 
 2.318886450905500E+000  2.376162946242800E+000  2.434854171015000E+000  2.494995069039100E+000 
 2.556621447244400E+000  2.619769996991300E+000  2.684478315917000E+000  2.750784930320200E+000 
 2.818729318099100E+000  2.888351932256100E+000  2.959694224982800E+000  3.032798672339900E+000 
 3.107708799546700E+000  3.184469206895500E+000  3.263125596305800E+000  3.343724798534600E+000 
 3.426314801058400E+000  3.510944776644500E+000  3.597665112627600E+000  3.686527440909500E+000 
 3.777584668700000E+000  3.870891010016900E+000  3.966502017964300E+000  4.064474617808000E+000 
 4.164867140867900E+000  4.267739359247300E+000  4.373152521420700E+000  4.481169388699800E+000 
 4.591854272600700E+000  4.705273073134000E+000  4.821493318040400E+000  4.940584202996000E+000 
 5.062616632810000E+000  5.187663263640400E+000  5.315798546252300E+000  5.447098770344700E+000 
 5.581642109972200E+000  5.719508670088500E+000  5.860780534239700E+000  6.005541813435500E+000 
 6.153878696227300E+000  6.305879500024100E+000  6.461634723674700E+000  6.621237101349500E+000 
 6.784781657752800E+000  6.952365764699300E+000  7.124089199087400E+000  7.300054202304800E+000 
 7.480365541101800E+000  7.665130569967000E+000  7.854459295045200E+000  8.048464439632800E+000 
 8.247261511291700E+000  8.450968870620599E+000  8.659707801725000E+000  8.873602584427600E+000 
 9.092780568262899E+000  9.317372248299000E+000  9.547511342831999E+000  9.783334872999900E+000 
 1.002498324436300E+001  1.027260033049900E+001  1.052633355866200E+001  1.078633399756100E+001 
 1.105275644730100E+001  1.132575953154900E+001  1.160550579197800E+001  1.189216178504000E+001 
 1.218589818113100E+001  1.248688986620500E+001  1.279531604590000E+001  1.311136035223400E+001 
 1.343521095293400E+001  1.376706066347100E+001  1.410710706185900E+001  1.445555260628700E+001 
 1.481260475566200E+001  1.517847609312700E+001  1.555338445262700E+001  1.593755304860700E+001 
 1.633121060890800E+001  1.673459151094800E+001  1.714793592126800E+001  1.757148993852400E+001 
 1.800550574000500E+001  1.845024173178300E+001  1.890596270255800E+001  1.937293998131200E+001 
 1.985145159885000E+001  2.034178245334200E+001  2.084422447993900E+001  2.135907682459400E+001 
 2.188664602216100E+001  2.242724617890800E+001  2.298119915952700E+001  2.354883477876800E+001 
 2.413049099780300E+001  2.472651412544900E+001  2.533725902434800E+001  2.596308932224900E+001 
 2.660437762850900E+001  2.726150575593300E+001  2.793486494810400E+001  2.862485611232200E+001 
 2.933189005829700E+001  3.005638774273700E+001  3.079878051998200E+001  3.155951039882600E+001 
 3.233903030567700E+001  3.313780435422700E+001  3.395630812177700E+001  3.479502893238400E+001 
 3.565446614701400E+001  3.653513146084600E+001  3.743754920792800E+001  3.836225667336400E+001 
 3.930980441319600E+001  4.028075658220200E+001  4.127569126978300E+001  4.229520084414600E+001 
 4.333989230499700E+001  4.441038764493000E+001  4.550732421976000E+001  4.663135512798800E+001 
 4.778314959964900E+001  4.896339339476100E+001  5.017278921161100E+001  5.141205710513800E+001 
 5.268193491563500E+001  5.398317870805100E+001  5.531656322214000E+001  5.668288233372700E+001 
 5.808294952737000E+001  5.951759838069600E+001  6.098768306069900E+001  6.249407883229800E+001 
 6.403768257945600E+001  6.561941333916900E+001  6.724021284864600E+001  6.890104610600800E+001 
 7.060290194482600E+001  7.234679362286300E+001  7.413375942534800E+001  7.596486328315400E+001 
 7.784119540624800E+001
    </PP_R>
    <PP_RAB type="real" size="521" columns="4">
 5.865357409503748E-006  6.010231737518487E-006  6.158684461435191E-006  6.310803967632516E-006 
 6.466680825633123E-006  6.626407842026211E-006  6.790080115724229E-006  6.957795094582569E-006 
 7.129652633418844E-006  7.305755053464174E-006  7.486207203284841E-006  7.671116521205972E-006 
 7.860593099279744E-006  8.054749748832032E-006  8.253702067628209E-006  8.457568508698404E-006 
 8.666470450863416E-006  8.880532270999619E-006  9.099881418093351E-006  9.324648489120165E-006 
 9.554967306801665E-006  9.790974999279663E-006  1.003281208176188E-005  1.028062254018132E-005 
 1.053455391692385E-005  1.079475739867165E-005  1.106138790641908E-005  1.133460418770762E-005 
 1.161456891114398E-005  1.190144876324914E-005  1.219541454770138E-005  1.249664128702951E-005 
 1.280530832681933E-005  1.312159944249173E-005  1.344570294872129E-005  1.377781181155471E-005 
 1.411812376329993E-005  1.446684142025355E-005  1.482417240333370E-005  1.519032946169620E-005 
 1.556553059939993E-005  1.594999920520527E-005  1.634396418557367E-005  1.674766010095743E-005 
 1.716132730545118E-005  1.758521208989577E-005  1.801956682851626E-005  1.846465012918050E-005 
 1.892072698737125E-005  1.938806894395947E-005  1.986695424687512E-005  2.035766801677300E-005 
 2.086050241678727E-005  2.137575682648184E-005  2.190373802009593E-005  2.244476034919239E-005 
 2.299914592981749E-005  2.356722483428380E-005  2.414933528769077E-005  2.474582386929678E-005 
 2.535704571886797E-005  2.598336474812450E-005  2.662515385740375E-005  2.728279515768074E-005 
 2.795668019807510E-005  2.864721019896762E-005  2.935479629088243E-005  3.007985975926667E-005 
 3.082283229532135E-005  3.158415625301509E-005  3.236428491246629E-005  3.316368274980338E-005 
 3.398282571372298E-005  3.482220150885302E-005  3.568230988612123E-005  3.656366294030683E-005 
 3.746678541493420E-005  3.839221501468173E-005  3.934050272554493E-005  4.031221314286606E-005 
 4.130792480749382E-005  4.232823055023897E-005  4.337373784483094E-005  4.444506916959729E-005 
 4.554286237808830E-005  4.666777107882696E-005  4.782046502447263E-005  4.900163051057856E-005 
 5.021197078418995E-005  5.145220646255827E-005  5.272307596218391E-005  5.402533593844852E-005 
 5.535976173612963E-005  5.672714785101232E-005  5.812830840293230E-005  5.956407762048453E-005 
 6.103531033770973E-005  6.254288250305167E-005  6.408769170087545E-005  6.567065768588840E-005 
 6.729272293072978E-005  6.895485318711929E-005  7.065803806084041E-005  7.240329160094401E-005 
 7.419165290348697E-005  7.602418673020342E-005  7.790198414243833E-005  7.982616315075779E-005 
 8.179786938058040E-005  8.381827675428101E-005  8.588858819011080E-005  8.801003631840716E-005 
 9.018388421547158E-005  9.241142615559359E-005  9.469398838163834E-005  9.703292989466340E-005 
 9.942964326306305E-005  1.018855554516593E-004  1.044021286713158E-004  1.069808612494961E-004 
 1.096232885223609E-004  1.123309837488628E-004  1.151055590474581E-004  1.179486663559301E-004 
 1.208619984149217E-004  1.238472897757703E-004  1.269063178332330E-004  1.300409038837144E-004 
 1.332529142096418E-004  1.365442611906188E-004  1.399169044420287E-004  1.433728519817449E-004 
 1.469141614256957E-004  1.505429412129094E-004  1.542613518608692E-004  1.580716072518311E-004 
 1.619759759509521E-004  1.659767825569415E-004  1.700764090860974E-004  1.742772963905240E-004 
 1.785819456113688E-004  1.829929196679700E-004  1.875128447837692E-004  1.921444120499291E-004 
 1.968903790275622E-004  2.017535713895429E-004  2.067368846028652E-004  2.118432856525553E-004 
 2.170758148081726E-004  2.224375874339346E-004  2.279317958435526E-004  2.335617112008896E-004 
 2.393306854675504E-004  2.452421533986062E-004  2.512996345875516E-004  2.575067355618601E-004 
 2.638671519302443E-004  2.703846705829061E-004  2.770631719463064E-004  2.839066322933944E-004 
 2.909191261110313E-004  2.981048285259737E-004  3.054680177905627E-004  3.130130778299998E-004 
 3.207445008524018E-004  3.286668900234438E-004  3.367849622070275E-004  3.451035507735373E-004 
 3.536276084776364E-004  3.623622104070417E-004  3.713125570040839E-004  3.804839771621019E-004 
 3.898819313979891E-004  3.995120151035274E-004  4.093799618765819E-004  4.194916469349371E-004 
 4.298530906142413E-004  4.404704619523979E-004  4.513500823626273E-004  4.624984293969783E-004 
 4.739221406030967E-004  4.856280174759815E-004  4.976230295076346E-004  5.099143183364811E-004 
 5.225092019993908E-004  5.354151792887913E-004  5.486399342172114E-004  5.621913405923836E-004 
 5.760774667049976E-004  5.903065801326244E-004  6.048871526619051E-004  6.198278653326411E-004 
 6.351376136063747E-004  6.508255126624326E-004  6.669009028251924E-004  6.833733551249884E-004 
 7.002526769965823E-004  7.175489181183987E-004  7.352723763959134E-004  7.534336040928815E-004 
 7.720434141139911E-004  7.911128864426029E-004  8.106533747377230E-004  8.306765130937472E-004 
 8.511942229671745E-004  8.722187202744613E-004  8.937625226652363E-004  9.158384569750760E-004 
 9.384596668623516E-004  9.616396206338586E-004  9.853921192635219E-004  1.009731304609327E-003 
 1.034671667833183E-003  1.060228058028650E-003  1.086415691061946E-003  1.113250158631184E-003 
 1.140747437549385E-003  1.168923899256841E-003  1.197796319568489E-003  1.227381888661824E-003 
 1.257698221311779E-003  1.288763367378187E-003  1.320595822552414E-003  1.353214539369471E-003 
 1.386638938491888E-003  1.420888920272645E-003  1.455984876603374E-003  1.491947703055492E-003 
 1.528798811320951E-003  1.566560141960568E-003  1.605254177467013E-003  1.644903955650448E-003 
 1.685533083355015E-003  1.727165750513880E-003  1.769826744551558E-003  1.813541465141994E-003 
 1.858335939330996E-003  1.904236837032462E-003  1.951271486907165E-003  1.999467892633769E-003 
 2.048854749581835E-003  2.099461461896495E-003  2.151318160005353E-003  2.204455718557495E-003 
 2.258905774805855E-003  2.314700747443561E-003  2.371873855905417E-003  2.430459140146279E-003 
 2.490491480907870E-003  2.552006620486427E-003  2.615041184012282E-003  2.679632701257334E-003 
 2.745819628978607E-003  2.813641373814379E-003  2.883138315747351E-003  2.954351832146345E-003 
 3.027324322400433E-003  3.102099233163788E-003  3.178721084222980E-003  3.257235495003309E-003 
 3.337689211729779E-003  3.420130135259562E-003  3.504607349600344E-003  3.591171151135529E-003 
 3.679873078568517E-003  3.770765943609217E-003  3.863903862416476E-003  3.959342287818131E-003 
 4.057138042327223E-003  4.157349351972690E-003  4.260035880966477E-003  4.365258767226112E-003 
 4.473080658776659E-003  4.583565751048620E-003  4.696779825099388E-003  4.812790286779457E-003 
 4.931666206862912E-003  5.053478362172222E-003  5.178299277718062E-003  5.306203269877600E-003 
 5.437266490643689E-003  5.571566972962540E-003  5.709184677194768E-003  5.850201538721281E-003 
 5.994701516727678E-003  6.142770644190837E-003  6.294497079102567E-003  6.449971156956214E-003 
 6.609285444533032E-003  6.772534795012990E-003  6.939816404450016E-003  7.111229869639749E-003 
 7.286877247420044E-003  7.466863115431087E-003  7.651294634382431E-003  7.840281611851640E-003 
 8.033936567664261E-003  8.232374800885669E-003  8.435714458467468E-003  8.644076605591631E-003 
 8.857585297749711E-003  9.076367654604239E-003  9.300553935673016E-003  9.530277617884152E-003 
 9.765675475045772E-003  1.000688765927941E-002  1.025405778446349E-002  1.050733301173979E-002 
 1.076686413712975E-002  1.103280568131684E-002  1.130531598164556E-002  1.158455728639213E-002 
 1.187069585136604E-002  1.216390203889462E-002  1.246435041925547E-002  1.277221987461102E-002 
 1.308769370551400E-002  1.341095974004009E-002  1.374221044561919E-002  1.408164304362583E-002 
 1.442945962680339E-002  1.478586727958553E-002  1.515107820139129E-002  1.552530983296571E-002 
 1.590878498583983E-002  1.630173197499013E-002  1.670438475477230E-002  1.711698305821528E-002 
 1.753977253975305E-002  1.797300492148512E-002  1.841693814304576E-002  1.887183651517906E-002 
 1.933797087710383E-002  1.981561875776828E-002  2.030506454108512E-002  2.080659963525012E-002 
 2.132052264624075E-002  2.184713955560295E-002  2.238676390262612E-002  2.293971697102101E-002 
 2.350632798020531E-002  2.408693428131650E-002  2.468188155806560E-002  2.529152403255000E-002 
 2.591622467615385E-002  2.655635542565324E-002  2.721229740466712E-002  2.788444115056407E-002 
 2.857318684698099E-002  2.927894456210266E-002  3.000213449278748E-002  3.074318721475903E-002 
 3.150254393896347E-002  3.228065677425387E-002  3.307798899657947E-002  3.389501532479475E-002 
 3.473222220331743E-002  3.559010809173803E-002  3.646918376160552E-002  3.736997260051575E-002 
 3.829301092374923E-002  3.923884829356561E-002  4.020804784641598E-002  4.120118662822408E-002 
 4.221885593794163E-002  4.326166167960697E-002  4.433022472309491E-002  4.542518127375560E-002 
 4.654718325121529E-002  4.769689867752013E-002  4.887501207485666E-002  5.008222487310563E-002 
 5.131925582747037E-002  5.258684144640945E-002  5.388573643013424E-002  5.521671411995978E-002 
 5.658056695872323E-002  5.797810696260209E-002  5.941016620457843E-002  6.087759730983223E-002 
 6.238127396338593E-002  6.392209143028066E-002  6.550096708860896E-002  6.711884097569883E-002 
 6.877667634779837E-002  7.047546025358782E-002  7.221620412185081E-002  7.399994436366113E-002 
 7.582774298944368E-002  7.770068824128284E-002  7.961989524084208E-002  8.158650665329202E-002 
 8.360169336762822E-002  8.566665519380760E-002  8.778262157709417E-002  8.995085233004836E-002 
 9.217263838260141E-002  9.444930255065191E-002  9.678220032365259E-002  9.917272067164637E-002 
 1.016222868722371E-001  1.041323573579804E-001  1.067044265847223E-001  1.093400259213652E-001 
 1.120407245616233E-001  1.148081304582969E-001  1.176438912806166E-001  1.205496953952479E-001 
 1.235272728715105E-001  1.265783965114366E-001  1.297048829052687E-001  1.329085935130280E-001 
 1.361914357727995E-001  1.395553642363873E-001  1.430023817330264E-001  1.465345405618341E-001 
 1.501539437137100E-001  1.538627461234383E-001  1.576631559526873E-001  1.615574359047195E-001 
 1.655479045715653E-001  1.696369378144831E-001  1.738269701785015E-001  1.781204963419091E-001 
 1.825200726015560E-001  1.870283183948141E-001  1.916479178591663E-001  1.963816214302873E-001 
 2.012322474796147E-001  2.062026839923611E-001  2.112958902869741E-001  2.165148987770622E-001 
 2.218628167768541E-001  2.273428283512426E-001  2.329581962115186E-001  2.387122636579419E-001 
 2.446084565702931E-001  2.506502854475851E-001  2.568413474981325E-001  2.631853287813375E-001 
 2.696860064022426E-001  2.763472507603698E-001  2.831730278541446E-001  2.901674016421454E-001 
 2.973345364627189E-001  3.046786995133496E-001  3.122042633913229E-001  3.199157086970952E-001 
 3.278176267019091E-001  3.359147220814347E-001  3.442118157168527E-001  3.527138475650610E-001 
 3.614258795999109E-001  3.703530988260323E-001  3.795008203670295E-001  3.888744906300979E-001 
 3.984796905486713E-001  4.083221389052228E-001  4.184076957361717E-001  4.287423658208717E-001 
 4.393323022566339E-001  4.501838101223698E-001  4.613033502323914E-001  4.726975429831514E-001 
 4.843731722948253E-001  4.963371896505174E-001  5.085967182348718E-001  5.211590571752854E-001 
 5.340316858875035E-001  5.472222685289156E-001  5.607386585615793E-001  5.745889034280669E-001 
 5.887812493427264E-001  6.033241462014981E-001  6.182262526126852E-001  6.334964410522088E-001 
 6.491438031462092E-001  6.651776550839165E-001  6.816075431644759E-001  6.984432494806343E-001 
 7.156947977428217E-001  7.333724592470711E-001  7.514867589904589E-001  7.700484819375342E-001 
 7.890686794413911E-001  8.085586758235882E-001  8.285300751164452E-001  8.489947679717996E-001 
 8.699649387407059E-001  8.914530727276199E-001  9.134719636239701E-001  9.360347211254866E-001 
 9.591547787372838E-001  9.828459017720962E-001  1.007122195545882E+000  1.031998113775850E+000 
 1.057488467186128E+000  1.083608432325614E+000  1.110373560604063E+000  1.137799787550981E+000 
 1.165903442303483E+000  1.194701257328395E+000  1.224210378384392E+000  1.254448374730492E+000 
 1.285433249586337E+000  1.317183450851115E+000  1.349717882087141E+000  1.383055913774697E+000 
 1.417217394844931E+000  1.452222664497600E+000  1.488092564310686E+000  1.524848450649153E+000 
 1.562512207380193E+000  1.601106258902494E+000  1.640653583497374E+000  1.681177727009770E+000 
 1.722702816866902E+000  1.765253576443510E+000  1.808855339781671E+000  1.853534066674276E+000 
 1.899316358121133E+000
    </PP_RAB>
  </PP_MESH>
  <PP_LOCAL type="real" size="521" columns="4">
-1.216001709693040E+001 -1.216001716164260E+001 -1.216001722476780E+001 -1.216001728634260E+001 
-1.216001734640320E+001 -1.216001740498460E+001 -1.216001746212080E+001 -1.216001751784480E+001 
-1.216001757218940E+001 -1.216001762518540E+001 -1.216001767686400E+001 -1.216001772725440E+001 
-1.216001777638600E+001 -1.216001782428640E+001 -1.216001787098340E+001 -1.216001791650340E+001 
-1.216001796087220E+001 -1.216001800411480E+001 -1.216001804625560E+001 -1.216001808731820E+001 
-1.216001812732520E+001 -1.216001816629900E+001 -1.216001820426080E+001 -1.216001824123180E+001 
-1.216001827723180E+001 -1.216001831228000E+001 -1.216001834639560E+001 -1.216001837959620E+001 
-1.216001841189960E+001 -1.216001844332240E+001 -1.216001847388060E+001 -1.216001850358980E+001 
-1.216001853246480E+001 -1.216001856051980E+001 -1.216001858776820E+001 -1.216001861422300E+001 
-1.216001863989660E+001 -1.216001866480040E+001 -1.216001868894540E+001 -1.216001871234200E+001 
-1.216001873499980E+001 -1.216001875692780E+001 -1.216001877813440E+001 -1.216001879862720E+001 
-1.216001881841340E+001 -1.216001883749900E+001 -1.216001885589000E+001 -1.216001887359100E+001 
-1.216001889060620E+001 -1.216001890693920E+001 -1.216001892259260E+001 -1.216001893756860E+001 
-1.216001895186800E+001 -1.216001896549140E+001 -1.216001897843800E+001 -1.216001899070700E+001 
-1.216001900229580E+001 -1.216001901320140E+001 -1.216001902341980E+001 -1.216001903294600E+001 
-1.216001904177420E+001 -1.216001904989720E+001 -1.216001905730720E+001 -1.216001906399480E+001 
-1.216001906994980E+001 -1.216001907516080E+001 -1.216001907961500E+001 -1.216001908329820E+001 
-1.216001908619540E+001 -1.216001908828960E+001 -1.216001908956260E+001 -1.216001908999460E+001 
-1.216001908956440E+001 -1.216001908824880E+001 -1.216001908602300E+001 -1.216001908286020E+001 
-1.216001907873200E+001 -1.216001907360760E+001 -1.216001906745420E+001 -1.216001906023680E+001 
-1.216001905191800E+001 -1.216001904245780E+001 -1.216001903181360E+001 -1.216001901994000E+001 
-1.216001900678860E+001 -1.216001899230820E+001 -1.216001897644420E+001 -1.216001895913800E+001 
-1.216001894032820E+001 -1.216001891994860E+001 -1.216001889792980E+001 -1.216001887419740E+001 
-1.216001884867240E+001 -1.216001882127120E+001 -1.216001879190460E+001 -1.216001876047820E+001 