<UPF version="2.0.1">
  <PP_INFO>
    Generated using FHI98PP, converted with fhi2upf.x v.5.0.1
    Author: Abinit web site
    Generation date: 10-Jul-2012, PG
    Pseudopotential type: SL
    Element: Fm
    Functional: SLA-PW

    Suggested minimum cutoff for wavefunctions:   0. Ry
    Suggested minimum cutoff for charge density:   0. Ry
    The Pseudo was generated with a Non-Relativistic Calculation
    L component and cutoff radius for Local Potential:  0   0.0000

    Valence configuration: 
    nl pn  l   occ       Rcut    Rcut US       E pseu
    7s  7  0  2.00      0.000      0.000     0.000000
    7p  7  1  0.00      0.000      0.000     0.000000
    6d  6  2  0.00      0.000      0.000     0.000000
    5f  5  3 12.00      0.000      0.000     0.000000

    Generation configuration: not available.
    Comment:
    fermium, fhi98PP : Trouiller-Martins-type, LDA Ceperley/Alder Perdew/Wang (1992)
  </PP_INFO>
  <!--                               -->
  <!-- END OF HUMAN READABLE SECTION -->
  <!--                               -->
  <PP_HEADER generated="Generated using FHI98PP, converted with fhi2upf.x v.5.0.1"
             author="Abinit web site"
             date="10-Jul-2012, PG"
             comment="fermium, fhi98PP : Trouiller-Martins-type, LDA Ceperley/Alder Perdew/Wang (1992)"
             element="Fm"
             pseudo_type="SL"
             relativistic="no"
             is_ultrasoft="F"
             is_paw="F"
             is_coulomb="F"
             has_so="F"
             has_wfc="F"
             has_gipaw="F"
             paw_as_gipaw="F"
             core_correction="T"
             functional="SLA-PW"
             z_valence="1.400000000000000E+001"
             total_psenergy="0.000000000000000E+000"
             wfc_cutoff="0.000000000000000E+000"
             rho_cutoff="0.000000000000000E+000"
             l_max="3"
             l_max_rho="0"
             l_local="0"
             mesh_size="577"
             number_of_wfc="4"
             number_of_proj="3"/>
  <PP_MESH dx="2.439988682353512E-002" mesh="577" xmin="-5.075173815233827E+000" rmax="7.935971003160400E+001"
zmesh="1.000000000000000E+002">
    <PP_R type="real" size="577" columns="4">
 6.250000000000000E-005  6.404374999999999E-005  6.562563062500000E-005  6.724658370143700E-005 
 6.890757431886300E-005  7.060959140453900E-005  7.235364831223100E-005  7.414078342554300E-005 
 7.597206077615400E-005  7.784857067732499E-005  7.977143037305500E-005  8.174178470326900E-005 
 8.376080678543999E-005  8.582969871304101E-005  8.794969227125300E-005  9.012204967035300E-005 
 9.234806429721000E-005  9.462906148535100E-005  9.696639930403999E-005  9.936146936684900E-005 
 1.018156976602100E-004  1.043305453924200E-004  1.069075098636100E-004  1.095481253572400E-004 
 1.122539640535700E-004  1.150266369656900E-004  1.178677948987400E-004  1.207791294327400E-004 
 1.237623739297300E-004  1.268193045657900E-004  1.299517413885700E-004  1.331615494008700E-004 
 1.364506396710700E-004  1.398209704709400E-004  1.432745484415700E-004  1.468134297880800E-004 
 1.504397215038500E-004  1.541555826249900E-004  1.579632255158300E-004  1.618649171860700E-004 
 1.658629806405700E-004  1.699597962623900E-004  1.741578032300700E-004  1.784595009698500E-004 
 1.828674506438100E-004  1.873842766747100E-004  1.920126683085700E-004  1.967553812158000E-004 
 2.016152391318300E-004  2.065951355383800E-004  2.116980353861800E-004  2.169269768602200E-004 
 2.222850731886700E-004  2.277755144964300E-004  2.334015697044900E-004  2.391665884761900E-004 
 2.450740032115500E-004  2.511273310908800E-004  2.573301761688200E-004  2.636862315201900E-004 
 2.701992814387400E-004  2.768732036902800E-004  2.837119718214300E-004  2.907196575254200E-004 
 2.979004330662900E-004  3.052585737630300E-004  3.127984605349800E-004  3.205245825101900E-004 
 3.284415396981900E-004  3.365540457287400E-004  3.448669306582400E-004  3.533851438455000E-004 
 3.621137568984800E-004  3.710579666938700E-004  3.802230984712100E-004  3.896146090034500E-004 
 3.992380898458400E-004  4.090992706650300E-004  4.192040226504500E-004  4.295583620099200E-004 
 4.401684535515700E-004  4.510406143542900E-004  4.621813175288400E-004  4.735971960718000E-004 
 4.852950468147800E-004  4.972818344711000E-004  5.095646957825400E-004  5.221509437683700E-004 
 5.350480720794400E-004  5.482637594598100E-004  5.618058743184600E-004  5.756824794141300E-004 
 5.899018366556600E-004  6.044724120210500E-004  6.194028805979700E-004  6.347021317487400E-004 
 6.503792744029400E-004  6.664436424806900E-004  6.829048004499600E-004  6.997725490210800E-004 
 7.170569309819000E-004  7.347682371771500E-004  7.529170126354300E-004  7.715140628475200E-004 
 7.905704601998500E-004  8.100975505667900E-004  8.301069600657900E-004  8.506106019794200E-004 
 8.716206838483100E-004  8.931497147393600E-004  9.152105126934200E-004  9.378162123569500E-004 
 9.609802728021700E-004  9.847164855403801E-004  1.009038982733200E-003  1.033962245606700E-003 
 1.059501113073200E-003  1.085670790566100E-003  1.112486859093100E-003  1.139965284512700E-003 
 1.168122427040200E-003  1.196975050988100E-003  1.226540334747500E-003  1.256835881015700E-003 
 1.287879727276800E-003  1.319690356540600E-003  1.352286708347100E-003  1.385688190043300E-003 
 1.419914688337400E-003  1.454986581139300E-003  1.490924749693400E-003  1.527750591010900E-003 
 1.565486030608800E-003  1.604153535564900E-003  1.643776127893300E-003  1.684377398252300E-003 
 1.725981519989100E-003  1.768613263532800E-003  1.812298011142100E-003  1.857061772017300E-003 
 1.902931197786100E-003  1.949933598371500E-003  1.998096958251200E-003  2.047449953120000E-003 
 2.098021966962100E-003  2.149843109546100E-003  2.202944234351900E-003  2.257356956940400E-003 
 2.313113673776800E-003  2.370247581519100E-003  2.428792696782600E-003  2.488783876393100E-003 
 2.550256838140000E-003  2.613248182042100E-003  2.677795412138500E-003  2.743936958818300E-003 
 2.811712201701200E-003  2.881161493083200E-003  2.952326181962300E-003  3.025248638656800E-003 
 3.099972280031600E-003  3.176541595348400E-003  3.255002172753500E-003  3.335400726420500E-003 
 3.417785124363100E-003  3.502204416934900E-003  3.588708866033200E-003  3.677349975024200E-003 
 3.768180519407300E-003  3.861254578236600E-003  3.956627566319100E-003  4.054356267207200E-003 
 4.154498867007200E-003  4.257114989022300E-003  4.362265729251100E-003  4.470013692763600E-003 
 4.580423030974900E-003  4.693559479840000E-003  4.809490398992000E-003  4.928284811847100E-003 
 5.050013446699700E-003  5.174748778833200E-003  5.302565073670400E-003  5.433538430990000E-003 
 5.567746830235500E-003  5.705270176942300E-003  5.846190350312800E-003  5.990591251965500E-003 
 6.138558855889100E-003  6.290181259629500E-003  6.445548736742400E-003  6.604753790539900E-003 
 6.767891209166200E-003  6.935058122032700E-003  7.106354057646900E-003  7.281881002870700E-003 
 7.461743463641600E-003  7.646048527193600E-003  7.834905925815301E-003  8.028428102182900E-003 
 8.226730276306800E-003  8.429930514131601E-003  8.638149797830700E-003  8.851512097837100E-003 
 9.070144446653600E-003  9.294177014486000E-003  9.523743186743800E-003  9.758979643456400E-003 
 1.000002644065000E-002  1.024702709373400E-002  1.050012866294900E-002  1.075948184092400E-002 
 1.102524104239500E-002  1.129756449614200E-002  1.157661433919700E-002  1.186255671337500E-002 
 1.215556186419500E-002  1.245580424224100E-002  1.276346260702400E-002  1.307872013341700E-002 
 1.340176452071300E-002  1.373278810437400E-002  1.407198797055300E-002  1.441956607342500E-002 
 1.477572935543900E-002  1.514068987051800E-002  1.551466491032000E-002  1.589787713360500E-002 
 1.629055469880500E-002  1.669293139986500E-002  1.710524680544200E-002  1.752774640153600E-002 
 1.796068173765400E-002  1.840431057657400E-002  1.885889704781600E-002  1.932471180489700E-002 
 1.980203218647800E-002  2.029114238148400E-002  2.079233359830600E-002  2.130590423818500E-002 
 2.183216007286800E-002  2.237141442666800E-002  2.292398836300600E-002  2.349021087557300E-002 
 2.407041908419900E-002  2.466495843557900E-002  2.527418290893800E-002  2.589845522678900E-002 
 2.653814707089000E-002  2.719363930354100E-002  2.786532219433900E-002  2.855359565253900E-002 
 2.925886946515700E-002  2.998156354094600E-002  3.072210816040700E-002  3.148094423196900E-002 
 3.225852355449900E-002  3.305530908629500E-002  3.387177522072700E-002  3.470840806867800E-002 
 3.556570574797500E-002  3.644417867995000E-002  3.734434989334500E-002  3.826675533571000E-002 
 3.921194419250200E-002  4.018047921405700E-002  4.117293705064400E-002  4.218990859579500E-002 
 4.323199933811100E-002  4.429982972176300E-002  4.539403551589000E-002  4.651526819313300E-002 
 4.766419531750300E-002  4.884150094184500E-002  5.004788601510900E-002  5.128406879968200E-002 
 5.255078529903400E-002  5.384878969592000E-002  5.517885480141000E-002  5.654177251500400E-002 
 5.793835429612500E-002  5.936943164723900E-002  6.083585660892600E-002  6.233850226716700E-002 
 6.387826327316599E-002  6.545605637601300E-002  6.707282096849999E-002  6.872951964642200E-002 
 7.042713878168901E-002  7.216668910959700E-002  7.394920633060401E-002  7.577575172697000E-002 
 7.764741279462600E-002  7.956530389065300E-002  8.153056689675200E-002  8.354437189910199E-002 
 8.560791788501000E-002  8.772243345676900E-002  8.988917756315200E-002  9.210944024896101E-002 
 9.438454342311101E-002  9.671584164566201E-002  9.910472293430900E-002  1.015526095907900E-001 
 1.040609590476800E-001  1.066312647361600E-001  1.092650569751400E-001  1.119639038824300E-001 
 1.147294123083200E-001  1.175632287923400E-001  1.204670405435100E-001  1.234425764449300E-001 
 1.264916080831200E-001  1.296159508027800E-001  1.328174647876000E-001  1.360980561678600E-001 
 1.394596781552000E-001  1.429043322056400E-001  1.464340692111200E-001  1.500509907206300E-001 
 1.537572501914300E-001  1.575550542711600E-001  1.614466641116600E-001  1.654343967152200E-001 
 1.695206263140800E-001  1.737077857840400E-001  1.779983680929000E-001  1.823949277848000E-001 
 1.869000825010800E-001  1.915165145388600E-001  1.962469724479700E-001  2.010942726674400E-001 
 2.060613012023200E-001  2.111510153420200E-001  2.163664454209700E-001  2.217106966228600E-001 
 2.271869508294500E-001  2.327984685149400E-001  2.385485906872500E-001  2.444407408772300E-001 
 2.504784271769000E-001  2.566652443281700E-001  2.630048758630700E-001  2.695010962968900E-001 
 2.761577733754200E-001  2.829788703778000E-001  2.899684484761300E-001  2.971306691534900E-001 
 3.044697966815800E-001  3.119902006596100E-001  3.196963586159100E-001  3.275928586737200E-001 
 3.356844022829600E-001  3.439758070193500E-001  3.524720094527300E-001  3.611780680862100E-001 
 3.700991663679400E-001  3.792406157772300E-001  3.886078589869300E-001  3.982064731039000E-001 
 4.080421729895700E-001  4.181208146624100E-001  4.284483987845700E-001  4.390310742345500E-001 
 4.498751417681400E-001  4.609870577698200E-001  4.723734380967300E-001  4.840410620177200E-001 
 4.959968762495600E-001  5.082479990929200E-001  5.208017246705200E-001  5.336655272698800E-001 
 5.468470657934500E-001  5.603541883185400E-001  5.741949367700100E-001  5.883775517082300E-001 
 6.029104772354300E-001  6.178023660231400E-001  6.330620844639100E-001  6.486987179501700E-001 
 6.647215762835400E-001  6.811401992177400E-001  6.979643621384199E-001  7.152040818832400E-001 
 7.328696227057599E-001  7.509715023865901E-001  7.695204984955401E-001  7.885276548083801E-001 
 8.080042878821400E-001  8.279619937928300E-001  8.484126550395200E-001  8.693684476189900E-001 
 8.908418482751800E-001  9.128456419275800E-001  9.353929292831900E-001  9.584971346364800E-001 
 9.821720138620000E-001  1.006431662604400E+000  1.031290524670700E+000  1.056763400630100E+000 
 1.082865456625700E+000  1.109612233404300E+000  1.137019655569400E+000  1.165104041062000E+000 
 1.193882110876200E+000  1.223370999014800E+000  1.253588262690500E+000  1.284551892779000E+000 
 1.316280324530600E+000  1.348792448546500E+000  1.382107622025600E+000  1.416245680289600E+000 
 1.451226948592800E+000  1.487072254223000E+000  1.523802938902300E+000  1.561440871493200E+000 
 1.600008461019100E+000  1.639528670006300E+000  1.680025028155400E+000  1.721521646350900E+000 
 1.764043231015700E+000  1.807615098821800E+000  1.852263191762700E+000  1.898014092599300E+000 
 1.944895040686500E+000  1.992933948191400E+000  2.042159416711700E+000  2.092600754304500E+000 
 2.144287992935800E+000  2.197251906361400E+000  2.251524028448500E+000  2.307136671951200E+000 
 2.364122947748400E+000  2.422516784557700E+000  2.482352949136300E+000  2.543667066980000E+000 
 2.606495643534400E+000  2.670876085929700E+000  2.736846725252200E+000  2.804446839365900E+000 
 2.873716676298200E+000  2.944697478202800E+000  3.017431505914400E+000  3.091962064110500E+000 
 3.168333527094000E+000  3.246591365213200E+000  3.326782171934000E+000  3.408953691580800E+000 
 3.493154847762800E+000  3.579435772502500E+000  3.667847836083400E+000  3.758443677634600E+000 
 3.851277236472200E+000  3.946403784213100E+000  4.043879957683100E+000  4.143763792637900E+000 
 4.246114758316100E+000  4.350993792846500E+000  4.458463339529800E+000  4.568587384016100E+000 
 4.681431492401300E+000  4.797062850263700E+000  4.915550302665200E+000  5.036964395141000E+000 
 5.161377415701000E+000  5.288863437868800E+000  5.419498364784200E+000  5.553359974394300E+000 
 5.690527965761900E+000  5.831084006516200E+000  5.975111781477100E+000  6.122697042479600E+000 
 6.273927659428900E+000  6.428893672616800E+000  6.587687346330400E+000  6.750403223784800E+000 
 6.917138183412200E+000  7.087991496542500E+000  7.263064886507100E+000  7.442462589203800E+000 
 7.626291415157200E+000  7.814660813111600E+000  8.007682935195399E+000  8.205472703694699E+000 
 8.408147879475999E+000  8.615829132099099E+000  8.828640111661899E+000  9.046707522419901E+000 
 9.270161198223700E+000  9.499134179819800E+000  9.733762794061400E+000  9.974186735074699E+000 
 1.022054914743100E+001  1.047299671137300E+001  1.073167973014400E+001  1.099675221947800E+001 
 1.126837199929900E+001  1.154670078768200E+001  1.183190429713800E+001  1.212415233327700E+001 
 1.242361889590900E+001  1.273048228263800E+001  1.304492519501900E+001  1.336713484733600E+001 
 1.369730307806500E+001  1.403562646409300E+001  1.438230643775600E+001  1.473754940676900E+001 
 1.510156687711600E+001  1.547457557898100E+001  1.585679759578200E+001  1.624846049639800E+001 
 1.664979747065900E+001  1.706104746818400E+001  1.748245534064800E+001  1.791427198756200E+001 
 1.835675450565500E+001  1.881016634194400E+001  1.927477745059000E+001  1.975086445362000E+001 
 2.023871080562400E+001  2.073860696252300E+001  2.125085055449800E+001  2.177574656319400E+001 
 2.231360750330500E+001  2.286475360863600E+001  2.342951302277000E+001  2.400822199443200E+001 
 2.460122507769500E+001  2.520887533711400E+001  2.583153455794000E+001  2.646957346152100E+001 
 2.712337192602100E+001  2.779331921259400E+001  2.847981419714500E+001  2.918326560781400E+001 
 2.990409226832700E+001  3.064272334735500E+001  3.139959861403500E+001  3.217516869980100E+001 
 3.296989536668600E+001  3.378425178224300E+001  3.461872280126500E+001  3.547380525445600E+001 
 3.635000824424100E+001  3.724785344787400E+001  3.816787542803600E+001  3.911062195110900E+001 
 4.007665431330100E+001  4.106654767484000E+001  4.208089140240800E+001  4.312028942004800E+001 
 4.418536056872300E+001  4.527673897477100E+001  4.639507442744700E+001  4.754103276580500E+001 
 4.871529627512100E+001  4.991856409311600E+001  5.115155262621600E+001  5.241499597608400E+001 
 5.370964637669300E+001  5.503627464219700E+001  5.639567062586000E+001  5.778864369031800E+001 
 5.921602318946900E+001  6.067865896224900E+001  6.217742183861700E+001  6.371320415803000E+001 
 6.528692030073400E+001  6.689950723216199E+001  6.855192506079599E+001  7.024515760979800E+001 
 7.198021300276000E+001  7.375812426392800E+001  7.557994993324699E+001  7.744677469659800E+001 
 7.935971003160400E+001
    </PP_R>
    <PP_RAB type="real" size="577" columns="4">
 1.524992926470945E-006  1.562660251754777E-006  1.601257959973120E-006  1.640809031584444E-006 
 1.681337014664592E-006  1.722866038926810E-006  1.765420830088299E-006  1.809026724591478E-006 
 1.853709684688889E-006  1.899496313900705E-006  1.946413872854054E-006  1.994490295513538E-006 
 2.043754205812729E-006  2.094234934696319E-006  2.145962537583315E-006  2.198967812261624E-006 
 2.253282317224469E-006  2.308938390459911E-006  2.365969168704291E-006  2.424408607171268E-006 
 2.484291499768393E-006  2.545653499812742E-006  2.608531141258049E-006  2.672961860447094E-006 
 2.738984018400288E-006  2.806636923654697E-006  2.875960855668906E-006  2.946997088803956E-006 
 3.019787916897446E-006  3.094376678444707E-006  3.170807782402413E-006  3.249126734627809E-006 
 3.329380164973080E-006  3.411615855047782E-006  3.495882766667408E-006  3.582231071004172E-006 
 3.670712178458083E-006  3.761378769265873E-006  3.854284824866807E-006  3.949485660040993E-006 
 4.047037955844105E-006  4.146999793353403E-006  4.249430688249207E-006  4.354391626248896E-006 
 4.461945099417358E-006  4.572155143372916E-006  4.685087375414097E-006  4.800809033587028E-006 
 4.919389016716621E-006  5.040897925429371E-006  5.165408104187526E-006  5.292993684360991E-006 
 5.423730628364770E-006  5.557696774885375E-006  5.694971885224999E-006  5.835637690790035E-006 
 5.979777941752503E-006  6.127478456913904E-006  6.278827174799562E-006  6.433914206017116E-006 
 6.592831886905769E-006  6.755674834512419E-006  6.922540002924877E-006  7.093526740997139E-006 
 7.268736851499575E-006  7.448274651731680E-006  7.632247035629529E-006  7.820763537409481E-006 
 8.013936396783455E-006  8.211880625784120E-006  8.414714077240991E-006  8.622557514948879E-006 
 8.835534685568022E-006  9.053772392301493E-006  9.277400570391374E-006  9.506552364480068E-006 
 9.741364207882844E-006  9.981975903817494E-006  1.022853070864163E-005  1.048117541714518E-005 
 1.074006044994878E-005  1.100533994306243E-005  1.127717183965605E-005  1.155571798409549E-005 
 1.184114421830281E-005  1.213362048049477E-005  1.243332090636308E-005  1.274042393275028E-005 
 1.305511240388900E-005  1.337757368026525E-005  1.370799975016762E-005  1.404658734399686E-005 
 1.439353805139361E-005  1.474905844126291E-005  1.511336018476211E-005  1.548666018132573E-005 
 1.586918068780463E-005  1.626114945079334E-005  1.666279984222786E-005  1.707437099833103E-005 
 1.749610796198979E-005  1.792826182865087E-005  1.837108989581865E-005  1.882485581624525E-005 
 1.928982975490642E-005  1.976628854985270E-005  2.025451587703407E-005  2.075480241919693E-005 
 2.126744603895105E-005  2.179275195611306E-005  2.233103292942900E-005  2.288260944278596E-005 
 2.344780989602285E-005  2.402697080045453E-005  2.462043697922509E-005  2.522856177261170E-005 
 2.585170724839556E-005  2.649024441743074E-005  2.714455345454170E-005  2.781502392486890E-005 
 2.850205501581404E-005  2.920605577470482E-005  2.992744535233988E-005  3.066665325254113E-005 
 3.142411958787920E-005  3.220029534170135E-005  3.299564263664009E-005  3.381063500976575E-005 
 3.464575769450771E-005  3.550150790956122E-005  3.637839515492639E-005  3.727694151525485E-005 
 3.819768197067996E-005  3.914116471535728E-005  4.010795148382531E-005  4.109861788547666E-005 
 4.211375374724716E-005  4.315396346480341E-005  4.421986636238503E-005  4.531209706153570E-005 
 4.643130585895497E-005  4.757815911367319E-005  4.875333964377906E-005  4.995754713298028E-005 
 5.119149854716578E-005  5.245592856128166E-005  5.375158999674559E-005  5.507925426966541E-005 
 5.643971185012546E-005  5.783377273282387E-005  5.926226691932409E-005  6.072604491223067E-005 
 6.222597822156253E-005  6.376295988363615E-005  6.533790499276099E-005  6.695175124608168E-005 
 6.860545950186204E-005  7.030001435155754E-005  7.203642470603968E-005  7.381572439627963E-005 
 7.563897278886716E-005  7.750725541675266E-005  7.942168462554632E-005  8.138340023579702E-005 
 8.339357022162155E-005  8.545339140609636E-005  8.756409017382714E-005  8.972692320112019E-005 
 9.194317820418791E-005  9.421417470582987E-005  9.654126482106525E-005  9.892583406214600E-005 
 1.013693021634806E-004  1.038731239269191E-004  1.064387900879128E-004  1.090678282030841E-004 
 1.117618035597013E-004  1.145223201076264E-004  1.173510214142836E-004  1.202495916432163E-004 
 1.232197565568032E-004  1.262632845437567E-004  1.293819876719879E-004  1.325777227674846E-004 
 1.358523925198426E-004  1.392079466150823E-004  1.426463828964754E-004  1.461697485540178E-004 
 1.497801413433033E-004  1.534797108344814E-004  1.572706596920943E-004  1.611552449864881E-004 
 1.651357795376535E-004  1.692146332922359E-004  1.733942347345539E-004  1.776770723324955E-004 
 1.820656960191080E-004  1.865627187107812E-004  1.911708178629380E-004  1.958927370641516E-004 
 2.007312876696358E-004  2.056893504750763E-004  2.107698774318119E-004  2.159758934043772E-004 
 2.213104979714634E-004  2.267768672713599E-004  2.323782558929624E-004  2.381179988135193E-004 
 2.439995133842187E-004  2.500263013648076E-004  2.562019510085128E-004  2.625301391984269E-004 
 2.690146336366324E-004  2.756592950874534E-004  2.824680796761206E-004  2.894450412441167E-004 
 2.965943337628376E-004  3.039202138067891E-004  3.114270430878081E-004  3.191192910520650E-004 
 3.270015375410656E-004  3.350784755183150E-004  3.433549138636409E-004  3.518357802360567E-004 
 3.605261240078972E-004  3.694311192708838E-004  3.785560679168797E-004  3.879064027944289E-004 
 3.974876909434503E-004  4.073056369097417E-004  4.173660861414205E-004  4.276750284691034E-004 
 4.382386016722917E-004  4.490630951335960E-004  4.601549535834110E-004  4.715207809369200E-004 
 4.831673442260629E-004  4.951015776284464E-004  5.073305865958532E-004  5.198616520847913E-004 
 5.327022348912815E-004  5.458599800931000E-004  5.593427216013825E-004  5.731584868249551E-004 
 5.873155014495155E-004  6.018221943353255E-004  6.166872025354129E-004  6.319193764380433E-004 
 6.475277850360461E-004  6.635217213264369E-004  6.799107078432130E-004  6.967045023269360E-004 
 7.139131035344184E-004  7.315467571917093E-004  7.496159620943356E-004  7.681314763580645E-004 
 7.871043238241174E-004  8.065458006225701E-004  8.264674818979601E-004  8.468812287008164E-004 
 8.677991950497425E-004  8.892338351674715E-004  9.111979108961139E-004  9.337044992952327E-004 
 9.567670004278241E-004  9.803991453383961E-004  1.004615004228250E-003  1.029428994832690E-003 
 1.054855891005054E-003  1.080910831512895E-003  1.107609329051250E-003  1.134967279478828E-003 
 1.163000971281946E-003  1.191727095272602E-003  1.221162754525846E-003  1.251325474562630E-003 
 1.282233213784323E-003  1.313904374164792E-003  1.346357812206682E-003  1.379612850168166E-003 
 1.413689287567330E-003  1.448607412970236E-003  1.484388016070605E-003  1.521052400067562E-003 
 1.558622394349230E-003  1.597120367489652E-003  1.636569240566633E-003  1.676992500808630E-003 
 1.718414215578613E-003  1.760859046703412E-003  1.804352265156985E-003  1.848919766106364E-003 
 1.894588084329187E-003  1.941384410012112E-003  1.989336604939408E-003  2.038473219081416E-003 
 2.088823507592732E-003  2.140417448230254E-003  2.193285759201561E-003  2.247459917453819E-003 
 2.302972177414945E-003  2.359855590197098E-003  2.418144023274945E-003  2.477872180649923E-003 
 2.539075623511915E-003  2.601790791412715E-003  2.666055023960533E-003  2.731906583052456E-003 
 2.799384675653705E-003  2.868529477142462E-003  2.939382155227861E-003  3.011984894461874E-003 
 3.086380921355088E-003  3.162614530112728E-003  3.240731109006302E-003  3.320777167398910E-003 
 3.402800363433513E-003  3.486849532410481E-003  3.572974715861037E-003  3.661227191342690E-003 
 3.751659502968866E-003  3.844325492692238E-003  3.939280332361793E-003  4.036580556571179E-003 
 4.136284096318342E-003  4.238450313497459E-003  4.343140036240705E-003  4.450415595135981E-003 
 4.560340860335729E-003  4.672981279586103E-003  4.788403917191882E-003  4.906677493946648E-003 
 5.027872428046989E-003  5.152060877019816E-003  5.279316780682257E-003  5.409715905164914E-003 
 5.543335888022619E-003  5.680256284456840E-003  5.820558614682705E-003  5.964326412465487E-003 
 6.111645274853444E-003  6.262602913142338E-003  6.417289205096812E-003  6.575796248462757E-003 
 6.738218415799709E-003  6.904652410670136E-003  7.075197325213648E-003  7.249954699146415E-003 
 7.429028580215300E-003  7.612525586146496E-003  7.800554968124501E-003  7.993228675837105E-003 
 8.190661424130259E-003  8.392970761306297E-003  8.600277139110614E-003  8.812703984446587E-003 
 9.030377772862431E-003  9.253428103852180E-003  9.481987778017387E-003  9.716192876134242E-003 
 9.956182840174847E-003  1.020210055632711E-002  1.045409244006835E-002  1.071230852333807E-002 
 1.097690254386443E-002  1.124803203669806E-002  1.152585842800439E-002  1.181054713117611E-002 
 1.210226764531622E-002  1.240119365615543E-002  1.270750313946259E-002  1.302137846700727E-002 
 1.334300651514244E-002  1.367257877606626E-002  1.401029147183515E-002  1.435634567118950E-002 
 1.471094740926804E-002  1.507430781027684E-002  1.544664321319063E-002  1.582817530055648E-002 
 1.621913123048024E-002  1.661974377187302E-002  1.703025144303833E-002  1.745089865368140E-002 
 1.788193585042743E-002  1.832361966593293E-002  1.877621307168150E-002  1.923998553455204E-002 
 1.971521317725531E-002  2.020217894273354E-002  2.070117276261923E-002  2.121249172985578E-002 
 2.173644027558324E-002  2.227333035039022E-002  2.282348161004483E-002  2.338722160581282E-002 
 2.396488597947637E-002  2.455681866316965E-002  2.516337208414924E-002  2.578490737462855E-002 
 2.642179458678276E-002  2.707441291307496E-002  2.774315091202825E-002  2.842840673955621E-002 
 2.913058838602249E-002  2.985011391915622E-002  3.058741173296022E-002  3.134292080276542E-002 
 3.211709094659272E-002  3.291038309297342E-002  3.372326955536990E-002  3.455623431338675E-002 
 3.540977330092854E-002  3.628439470146044E-002  3.718061925058632E-002  3.809898054607613E-002 
 3.904002536556465E-002  4.000431399209478E-002  4.099242054769816E-002  4.200493333522781E-002 
 4.304245518860630E-002  4.410560383176518E-002  4.519501224640981E-002  4.631132904889763E-002 
 4.745521887640534E-002  4.862736278265117E-002  4.982845864338198E-002  5.105922157187403E-002 
 5.232038434469880E-002  5.361269783801496E-002  5.493693147461327E-002  5.629387368203675E-002 
 5.768433236198319E-002  5.910913537132210E-002  6.056913101499435E-002  6.206518855106553E-002 
 6.359819870827671E-002  6.516907421637115E-002  6.677875034951640E-002  6.842818548314873E-002 
 7.011836166458159E-002  7.185028519769761E-002  7.362498724208050E-002  7.544352442696024E-002 
 7.730697948030545E-002  7.921646187346847E-002  8.117310848174396E-002  8.317808426124378E-002 
 8.523258294249537E-002  8.733782774117400E-002  8.949507208638316E-002  9.170560036691536E-002 
 9.397072869597879E-002  9.629180569477036E-002  9.867021329542965E-002  1.011073675638274E-001 
 1.036047195426550E-001  1.061637561153584E-001  1.087860008914076E-001  1.114730151134232E-001 
 1.142263985867248E-001  1.170477906318191E-001  1.199388710604247E-001  1.229013611756164E-001 
 1.259370247966546E-001  1.290476693091316E-001  1.322351467410681E-001  1.355013548655708E-001 
 1.388482383307519E-001  1.422777898175210E-001  1.457920512260125E-001  1.493931148912954E-001 
 1.530831248291118E-001  1.568642780123910E-001  1.607388256792962E-001  1.647090746735757E-001 
 1.687773888180110E-001  1.729461903218163E-001  1.772179612227652E-001  1.815952448649669E-001 
 1.860806474131332E-001  1.906768394042380E-001  1.953865573375213E-001  2.002126053037574E-001 
 2.051578566547612E-001  2.102252557141349E-001  2.154178195302728E-001  2.207386396726694E-001 
 2.261908840725850E-001  2.317777989091772E-001  2.375027105422352E-001  2.433690274926280E-001 
 2.493802424716948E-001  2.555399344607567E-001  2.618517708419396E-001  2.683195095817218E-001 
 2.749470014683877E-001  2.817381924046646E-001  2.886971257570661E-001  2.958279447632581E-001 
 3.031348949989119E-001  3.106223269053863E-001  3.182946983799454E-001  3.261565774299308E-001 
 3.342126448924452E-001  3.424676972212836E-001  3.509266493426470E-001  3.595945375814208E-001 
 3.684765226596771E-001  3.775778927693769E-001  3.869040667207846E-001  3.964605971687925E-001 
 4.062531739188609E-001  4.162876273146500E-001  4.265699317093183E-001  4.371062090225384E-001 
 4.479027323854004E-001  4.589659298753033E-001  4.703023883432229E-001  4.819188573353109E-001 
 4.938222531114829E-001  5.060196627633387E-001  5.185183484336098E-001  5.313257516399175E-001 
 5.444494977054261E-001  5.578974002987347E-001  5.716774660861302E-001  5.857978994984474E-001 
 6.002671076160719E-001  6.150937051741874E-001  6.302865196919724E-001  6.458545967283612E-001 
 6.618072052675622E-001  6.781538432376779E-001  6.949042431656468E-001  7.120683779718265E-001 
 7.296564669077304E-001  7.476789816403593E-001  7.661466524868843E-001  7.850704748032941E-001 
 8.044617155309335E-001  8.243319199045438E-001  8.446929183262007E-001  8.655568334088520E-001 
 8.869360871940490E-001  9.088434085477480E-001  9.312918407388655E-001  9.542947492051280E-001 
 9.778658295104851E-001  1.002019115499405E+000  1.026768987652227E+000  1.052130181647250E+000 
 1.078117797133933E+000  1.104747306723154E+000  1.132034565199195E+000  1.159995818959617E+000 
 1.188647715687934E+000  1.218007314265414E+000  1.248092094927771E+000  1.278919969672498E+000 
 1.310509292923402E+000  1.342878872458603E+000  1.376047980608348E+000  1.410036365729356E+000 