<UPF version="2.0.1">
  <PP_INFO>
    Generated using FHI98PP, converted with fhi2upf.x v.5.0.1
    Author: Abinit web site
    Generation date: 10-Jul-2012, PG
    Pseudopotential type: SL
    Element: Fr
    Functional: SLA-PW

    Suggested minimum cutoff for wavefunctions:   0. Ry
    Suggested minimum cutoff for charge density:   0. Ry
    The Pseudo was generated with a Non-Relativistic Calculation
    L component and cutoff radius for Local Potential:  0   0.0000

    Valence configuration: 
    nl pn  l   occ       Rcut    Rcut US       E pseu
    7s  7  0  1.00      0.000      0.000     0.000000
    7p  7  1  0.00      0.000      0.000     0.000000
    6d  6  2  0.00      0.000      0.000     0.000000
    5f  5  3  0.00      0.000      0.000     0.000000

    Generation configuration: not available.
    Comment:
    francium, fhi98PP : Trouiller-Martins-type, LDA Ceperley/Alder Perdew/Wang (1992
  </PP_INFO>
  <!--                               -->
  <!-- END OF HUMAN READABLE SECTION -->
  <!--                               -->
  <PP_HEADER generated="Generated using FHI98PP, converted with fhi2upf.x v.5.0.1"
             author="Abinit web site"
             date="10-Jul-2012, PG"
             comment="francium, fhi98PP : Trouiller-Martins-type, LDA Ceperley/Alder Perdew/Wang (1992"
             element="Fr"
             pseudo_type="SL"
             relativistic="no"
             is_ultrasoft="F"
             is_paw="F"
             is_coulomb="F"
             has_so="F"
             has_wfc="F"
             has_gipaw="F"
             paw_as_gipaw="F"
             core_correction="T"
             functional="SLA-PW"
             z_valence="1.000000000000000E+000"
             total_psenergy="0.000000000000000E+000"
             wfc_cutoff="0.000000000000000E+000"
             rho_cutoff="0.000000000000000E+000"
             l_max="3"
             l_max_rho="0"
             l_local="0"
             mesh_size="571"
             number_of_wfc="4"
             number_of_proj="3"/>
  <PP_MESH dx="2.439988682353512E-002" mesh="571" xmin="-5.075173815233828E+000" rmax="7.879531616183500E+001"
zmesh="8.700000000000000E+001">
    <PP_R type="real" size="571" columns="4">
 7.183908045977001E-005  7.361350574712600E-005  7.543175933907999E-005  7.729492379475601E-005 
 7.920410841248600E-005  8.116044989027501E-005  8.316511300256401E-005  8.521929129372800E-005 
 8.732420778868299E-005  8.948111572106300E-005  9.169129927937300E-005  9.395607437157400E-005 
 9.627678940855201E-005  9.865482610694301E-005  1.010916003117800E-004  1.035885628394900E-004 
 1.061472003416200E-004  1.087690361900600E-004  1.114556313839500E-004  1.142085854791400E-004 
 1.170295375404700E-004  1.199201671177200E-004  1.228821952455300E-004  1.259173854680900E-004 
 1.290275448891600E-004  1.322145252479200E-004  1.354802240215400E-004  1.388265855548700E-004 
 1.422556022180800E-004  1.457693155928700E-004  1.493698176880100E-004  1.530592521849000E-004 
 1.568398157138700E-004  1.607137591620000E-004  1.646833890133000E-004  1.687510687219300E-004 
 1.729192201193600E-004  1.771903248563100E-004  1.815669258802600E-004  1.860516289495100E-004 
 1.906471041845600E-004  1.953560876579200E-004  2.001813830230700E-004  2.051258631837400E-004 
 2.101924720043800E-004  2.153842260628800E-004  2.207042164466400E-004  2.261556105928700E-004 
 2.317416541745100E-004  2.374656730326200E-004  2.433310751565300E-004  2.493413527129000E-004 
 2.555000841249000E-004  2.618109362027900E-004  2.682776663270000E-004  2.749041246852700E-004 
 2.816942565650000E-004  2.886521047021600E-004  2.957818116883000E-004  3.030876224370000E-004 
 3.105738867111900E-004  3.182450617129600E-004  3.261057147372700E-004  3.341605258912800E-004 
 3.424142908808000E-004  3.508719238655500E-004  3.595384603850300E-004  3.684190603565400E-004 
 3.775190111473500E-004  3.868437307226900E-004  3.963987708715400E-004  4.061898205120700E-004 
 4.162227090787100E-004  4.265034099929600E-004  4.370380442197800E-004  4.478328839120100E-004 
 4.588943561446400E-004  4.702290467414100E-004  4.818437041959200E-004  4.937452436895600E-004 
 5.059407512087000E-004  5.184374877635500E-004  5.312428937113099E-004  5.443645931859800E-004 
 5.578103986376700E-004  5.715883154840200E-004  5.857065468764800E-004  6.001734985843300E-004 
 6.149977839993599E-004  6.301882292641400E-004  6.457538785269700E-004  6.617039993265800E-004 
 6.780480881099500E-004  6.947958758862700E-004  7.119573340206600E-004  7.295426801709700E-004 
 7.475623843711901E-004  7.660271752651600E-004  7.849480464942100E-004  8.043362632426200E-004 
 8.242033689447100E-004  8.445611921576400E-004  8.654218536039400E-004  8.867977733879500E-004 
 9.087016783906400E-004  9.311466098468800E-004  9.541459311101000E-004  9.777133356085200E-004 
 1.001862854998100E-003  1.026608867516500E-003  1.051966106544200E-003  1.077949669375800E-003 
 1.104575026209400E-003  1.131858029356800E-003  1.159814922681900E-003  1.188462351272100E-003 
 1.217817371348500E-003  1.247897460420800E-003  1.278720527693200E-003  1.310304924727300E-003 
 1.342669456368000E-003  1.375833391940300E-003  1.409816476721200E-003  1.444638943696300E-003 
 1.480321525605500E-003  1.516885467288000E-003  1.554352538330000E-003  1.592745046026800E-003 
 1.632085848663600E-003  1.672398369125600E-003  1.713706608843000E-003  1.756035162081400E-003 
 1.799409230584900E-003  1.843854638580300E-003  1.889397848153200E-003  1.936065975002600E-003 
 1.983886804585200E-003  2.032888808658400E-003  2.083101162232300E-003  2.134553760939400E-003 
 2.187277238834600E-003  2.241302986633900E-003  2.296663170403700E-003  2.353390750712700E-003 
 2.411519502255300E-003  2.471084033961000E-003  2.532119809599800E-003  2.594663168897000E-003 
 2.658751349168700E-003  2.724422507493200E-003  2.791715743428300E-003  2.860671122290900E-003 
 2.931329699011500E-003  3.003733542577100E-003  3.077925761078800E-003  3.153950527377400E-003 
 3.231853105403600E-003  3.311679877107100E-003  3.393478370071600E-003  3.477297285812400E-003 
 3.563186528772000E-003  3.651197236032600E-003  3.741381807762700E-003  3.833793938414400E-003 
 3.928488648693200E-003  4.025522318315900E-003  4.124952719578400E-003  4.226839051751900E-003 
 4.331241976330200E-003  4.438223653145600E-003  4.547847777378300E-003  4.660179617479500E-003 
 4.775286054031200E-003  4.893235619565800E-003  5.014098539369100E-003  5.137946773291500E-003 
 5.264854058591800E-003  5.394895953839000E-003  5.528149883898900E-003  5.664695186031200E-003 
 5.804613157126100E-003  5.947987102107100E-003  6.094902383529200E-003  6.245446472402400E-003 
 6.399709000270700E-003  6.557781812577400E-003  6.719759023348000E-003  6.885737071224700E-003 
 7.055814776884000E-003  7.230093401873000E-003  7.408676708899300E-003  7.591671023609100E-003 
 7.779185297892200E-003  7.971331174750200E-003  8.168223054766501E-003  8.369978164219199E-003 
 8.576716624875500E-003  8.788561525509900E-003  9.005638995190000E-003  9.228078278371200E-003 
 9.456011811846901E-003  9.689575303599500E-003  9.928907813598500E-003  1.017415183659400E-002 
 1.042545338695800E-002  1.068296208561600E-002  1.094683124913100E-002  1.121721798098400E-002 
 1.149428326511500E-002  1.177819206176300E-002  1.206911340568900E-002  1.236722050680900E-002 
 1.267269085332700E-002  1.298570631740400E-002  1.330645326344400E-002  1.363512265905100E-002 
 1.397191018873000E-002  1.431701637039200E-002  1.467064667474000E-002  1.503301164760600E-002 
 1.540432703530200E-002  1.578481391307400E-002  1.617469881672700E-002  1.657421387750000E-002 
 1.698359696027400E-002  1.740309180519300E-002  1.783294817278200E-002  1.827342199264900E-002 
 1.872477551586800E-002  1.918727747111000E-002  1.966120322464600E-002  2.014683494429500E-002 
 2.064446176741900E-002  2.115437997307400E-002  2.167689315840900E-002  2.221231241942200E-002 
 2.276095653618100E-002  2.332315216262500E-002  2.389923402104200E-002  2.448954510136200E-002 
 2.509443686536500E-002  2.571426945594000E-002  2.634941191150200E-002  2.700024238571600E-002 
 2.766714837264300E-002  2.835052693744700E-002  2.905078495280200E-002  2.976833934113600E-002 
 3.050361732286200E-002  3.125705667073700E-002  3.202910597050400E-002  3.282022488797600E-002 
 3.363088444270900E-002  3.446156728844400E-002  3.531276800046800E-002  3.618499337008000E-002 
 3.707876270632100E-002  3.799460814516700E-002  3.893307496635200E-002  3.989472191802100E-002 
 4.088012154939600E-002  4.188986055166600E-002  4.292454010729300E-002  4.398477624794300E-002 
 4.507120022126700E-002  4.618445886673200E-002  4.732521500074100E-002  4.849414781125900E-002 
 4.969195326219700E-002  5.091934450777300E-002  5.217705231711500E-002  5.346582550934800E-002 
 5.478643139942900E-002  5.613965625499500E-002  5.752630576449300E-002  5.894720551687600E-002 
 6.040320149314300E-002  6.189516057002300E-002  6.342397103610301E-002  6.499054312069499E-002 
 6.659580953577600E-002  6.824072603131000E-002  6.992627196428300E-002  7.165345088180100E-002 
 7.342329111858099E-002  7.523684640921000E-002  7.709519651551799E-002  7.899944786945100E-002 
 8.095073423182600E-002  8.295021736735200E-002  8.499908773632600E-002  8.709856520341300E-002 
 8.924989976393800E-002  9.145437228810700E-002  9.371329528362300E-002  9.602801367712900E-002 
 9.839990561495400E-002  1.008303832836400E-001  1.033208937507500E-001  1.058729198263900E-001 
 1.084879809461000E-001  1.111676340754700E-001  1.139134746371400E-001  1.167271374606700E-001 
 1.196102977559500E-001  1.225646721105300E-001  1.255920195116600E-001  1.286941423935900E-001 
 1.318728877107100E-001  1.351301480371700E-001  1.384678626936900E-001  1.418880189022200E-001 
 1.453926529691100E-001  1.489838514974400E-001  1.526637526294300E-001  1.564345473193800E-001 
 1.602984806381700E-001  1.642578531099300E-001  1.683150220817400E-001  1.724724031271600E-001 
 1.767324714844000E-001  1.810977635300700E-001  1.855708782892600E-001  1.901544789830100E-001 
 1.948512946138900E-001  1.996641215908500E-001  2.045958253941400E-001  2.096493422813800E-001 
 2.148276810357300E-001  2.201339247573100E-001  2.255712326988200E-001  2.311428421464800E-001 
 2.368520703475000E-001  2.427023164850800E-001  2.486970637022600E-001  2.548398811757100E-001 
 2.611344262407500E-001  2.675844465688900E-001  2.741937823991400E-001  2.809663688244000E-001 
 2.879062381343700E-001  2.950175222162800E-001  3.023044550150300E-001  3.097713750539000E-001 
 3.174227280177300E-001  3.252630693997700E-001  3.332970672139400E-001  3.415295047741200E-001 
 3.499652835420500E-001  3.586094260455300E-001  3.674670788688600E-001  3.765435157169200E-001 
 3.858441405551300E-001  3.953744908268400E-001  4.051402407502600E-001  4.151472046967900E-001 
 4.254013406528000E-001  4.359087537669300E-001  4.466756999849700E-001  4.577085897746000E-001 
 4.690139919420300E-001  4.805986375430000E-001  4.924694238903100E-001  5.046334186604000E-001 
 5.170978641013200E-001  5.298701813446201E-001  5.429579748238300E-001  5.563690368019800E-001 
 5.701113520109899E-001  5.841931024056600E-001  5.986226720350800E-001  6.134086520343500E-001 
 6.285598457395900E-001  6.440852739293600E-001  6.599941801954200E-001  6.762960364462400E-001 
 6.930005485464700E-001  7.101176620955600E-001  7.276575683493200E-001  7.456307102875500E-001 
 7.640477888316600E-001  7.829197692158000E-001  8.022578875154300E-001  8.220736573370599E-001 
 8.423788766732800E-001  8.631856349271100E-001  8.845063201098100E-001  9.063536262165300E-001 
 9.287405607840700E-001  9.516804526354400E-001  9.751869598155400E-001  9.992740777229800E-001 
 1.023956147442700E+000  1.049247864284600E+000  1.075164286532400E+000  1.101720844409800E+000 
 1.128933349266700E+000  1.156818002993600E+000  1.185391407667500E+000  1.214670575436900E+000 
 1.244672938650200E+000  1.275416360234800E+000  1.306919144332600E+000  1.339200047197700E+000 
 1.372278288363400E+000  1.406173562086000E+000  1.440906049069500E+000  1.476496428481600E+000 
 1.512965890265000E+000  1.550336147754600E+000  1.588629450604100E+000  1.627868598034100E+000 
 1.668076952405500E+000  1.709278453129900E+000  1.751497630922200E+000  1.794759622406000E+000 
 1.839090185079400E+000  1.884515712650900E+000  1.931063250753400E+000  1.978760513047000E+000 
 2.027635897719200E+000  2.077718504392900E+000  2.129038151451400E+000  2.181625393792300E+000 
 2.235511541018900E+000  2.290728676082100E+000  2.347309674381300E+000  2.405288223338500E+000 
 2.464698842455000E+000  2.525576903863600E+000  2.587958653389100E+000  2.651881232127800E+000 
 2.717382698561300E+000  2.784502051215800E+000  2.853279251880800E+000  2.923755249402300E+000 
 2.995972004062500E+000  3.069972512562900E+000  3.145800833623200E+000  3.223502114213700E+000 
 3.303122616434700E+000  3.384709745060700E+000  3.468312075763700E+000  3.553979384035000E+000 
 3.641762674820700E+000  3.731714212888800E+000  3.823887553947100E+000  3.918337576529600E+000 
 4.015120514669900E+000  4.114293991382200E+000  4.215917052969400E+000  4.320050204177700E+000 
 4.426755444220900E+000  4.536096303693200E+000  4.648137882394400E+000  4.762946888089500E+000 
 4.880591676225400E+000  5.001142290628100E+000  5.124670505206600E+000  5.251249866685200E+000 
 5.380955738392400E+000  5.513865345130700E+000  5.650057819155400E+000  5.789614247288500E+000 
 5.932617719196500E+000  6.079153376860700E+000  6.229308465269200E+000  6.383172384361300E+000 
 6.540836742255000E+000  6.702395409788700E+000  6.867944576410500E+000  7.037582807447800E+000 
 7.211411102791800E+000  7.389532957030800E+000  7.572054421069400E+000  7.759084165269800E+000 
 7.950733544152000E+000  8.147116662692600E+000  8.348350444261101E+000  8.554554700234300E+000 
 8.765852201330100E+000  8.982368750702900E+000  9.204233258845299E+000  9.431577820338800E+000 
 9.664537792501200E+000  9.903251875975901E+000  1.014786219731300E+001  1.039851439358600E+001 
 1.065535769910800E+001  1.091854503427600E+001  1.118823309662200E+001  1.146458245410900E+001 
 1.174775764072500E+001  1.203792725445100E+001  1.233526405763600E+001  1.263994507986000E+001 
 1.295215172333200E+001  1.327206987089900E+001  1.359988999671000E+001  1.393580727962900E+001 
 1.428002171943500E+001  1.463273825590500E+001  1.499416689082600E+001  1.536452281303000E+001 
 1.574402652651200E+001  1.613290398171600E+001  1.653138671006500E+001  1.693971196180300E+001 
 1.735812284726000E+001  1.778686848158700E+001  1.822620413308300E+001  1.867639137517000E+001 
 1.913769824213600E+001  1.961039938871700E+001  2.009477625361800E+001  2.059111722708300E+001 
 2.109971782259200E+001  2.162088085281000E+001  2.215491660987400E+001  2.270214305013800E+001 
 2.326288598347600E+001  2.383747926726800E+001  2.442626500517000E+001  2.502959375079800E+001 
 2.564782471644200E+001  2.628132598693800E+001  2.693047473881600E+001  2.759565746486400E+001 
 2.827727020424700E+001  2.897571877829200E+001  2.969141903211500E+001  3.042479708220900E+001 
 3.117628957013900E+001  3.194634392252200E+001  3.273541861740800E+001  3.354398345725800E+001 
 3.437251984865200E+001  3.522152108891400E+001  3.609149265981000E+001  3.698295252850700E+001 
 3.789643145596100E+001  3.883247331292400E+001  3.979163540375300E+001  4.077448879822600E+001 
 4.178161867154200E+001  4.281362465272900E+001  4.387112118165100E+001  4.495473787483800E+001 
 4.606511990034600E+001  4.720292836188500E+001  4.836884069242400E+001  4.956355105752600E+001 
 5.078777076864700E+001  5.204222870663300E+001  5.332767175568700E+001  5.464486524805200E+001 
 5.599459341967900E+001  5.737765987714500E+001  5.879488807611100E+001  6.024712181159100E+001 
 6.173522572033700E+001  6.326008579562900E+001  6.482260991478100E+001  6.642372837967601E+001 
 6.806439447065399E+001  6.974558501407900E+001  7.146830096392701E+001  7.323356799773600E+001 
 7.504243712728000E+001  7.689598532432400E+001  7.879531616183500E+001
    </PP_R>
    <PP_RAB type="real" size="571" columns="4">
 1.752865432725222E-006  1.796161208913526E-006  1.840526390773690E-006  1.885987392625818E-006 
 1.932571281223664E-006  1.980305791869904E-006  2.029219344929071E-006  2.079341062748835E-006 
 2.130700786998729E-006  2.183329096437587E-006  2.237257325119589E-006  2.292517581050054E-006 
 2.349142765301994E-006  2.407166591604947E-006  2.466623606417480E-006  2.527549209496212E-006 
 2.589979674970637E-006  2.653952172942460E-006  2.719504791614029E-006  2.786676559967053E-006 
 2.855507470998123E-006  2.926038505531786E-006  2.998311656618477E-006  3.072369954536842E-006 
 3.148257492414102E-006  3.226019452476675E-006  3.305702132952761E-006  3.387352975636643E-006 
 3.471020594134983E-006  3.556754802810202E-006  3.644606646439518E-006  3.734628430606481E-006 
 3.826873752842533E-006  3.921397534537680E-006  4.018256053640727E-006  4.117506978165689E-006 
 4.219209400526342E-006  4.323423872719386E-006  4.430212442375534E-006  4.539638689702394E-006 
 4.651767765337973E-006  4.766666429141854E-006  4.884403089941643E-006  5.005047846263206E-006 
 5.128672528065947E-006  5.255350739508975E-006  5.385157902775014E-006  5.518171302973509E-006 
 5.654470134156859E-006  5.794135546470524E-006  5.937250694468451E-006  6.083900786621911E-006 
 6.234173136051263E-006  6.388157212511850E-006  6.545944695660920E-006  6.707629529643575E-006 
 6.873307979025866E-006  7.043078686107914E-006  7.217042729654698E-006  7.395303685077144E-006 
 7.577967686098455E-006  7.765143487945173E-006  7.956942532097417E-006  8.153479012640210E-006 
 8.354869944252554E-006  8.561235231875452E-006  8.772697742102799E-006  8.989383376332731E-006 
 9.211421145728234E-006  9.438943248027732E-006  9.672085146254007E-006  9.910985649366553E-006 
 1.015578699490571E-005  1.040663493368002E-005  1.066367881654177E-005  1.092707168331039E-005 
 1.119697035388823E-005  1.147353552162921E-005  1.175693184901338E-005  1.204732806568403E-005 
 1.234489706890662E-005  1.264981602650849E-005  1.296226648236326E-005  1.328243446447765E-005 
 1.361051059575016E-005  1.394669020746518E-005  1.429117345558968E-005  1.464416543994277E-005 
 1.500587632630928E-005  1.537652147156902E-005  1.575632155191692E-005  1.614550269424911E-005 
 1.654429661079715E-005  1.695294073708394E-005  1.737167837328989E-005  1.780075882911015E-005 
 1.824043757218910E-005  1.869097638022221E-005  1.915264349681371E-005  1.962571379118508E-005 
 2.011046892182728E-005  2.060719750419631E-005  2.111619528255012E-005  2.163776530602892E-005 
 2.217221810908803E-005  2.271987189638229E-005  2.328105273222298E-005  2.385609473470890E-005 
 2.444534027465742E-005  2.504914017944016E-005  2.566785394187337E-005  2.630184993423662E-005 
 2.695150562761270E-005  2.761720781661541E-005  2.829935284968550E-005  2.899834686507169E-005 
 2.971460603263844E-005  3.044855680164442E-005  3.120063615464519E-005  3.197129186766682E-005 
 3.276098277679663E-005  3.357017905138376E-005  3.439936247395232E-005  3.524902672706104E-005 
 3.611967768721705E-005  3.701183372609238E-005  3.792602601912654E-005  3.886279886180016E-005 
 3.982270999368511E-005  4.080633093052935E-005  4.181424730451337E-005  4.284705921293431E-005 
 4.390538157549597E-005  4.498984450040958E-005  4.610109365956887E-005  4.723979067296062E-005 
 4.840661350258362E-005  4.960225685609610E-005  5.082743260044260E-005  5.208287018567260E-005 
 5.336931707925865E-005  5.468753921111842E-005  5.603832142963163E-005  5.742246796894423E-005 
 5.884080292777707E-005  6.029417076009302E-005  6.178343677786643E-005  6.330948766628180E-005 
 6.487323201163759E-005  6.647560084232585E-005  6.811754818313173E-005  6.980005162325316E-005 
 7.152411289834787E-005  7.329075848693745E-005  7.510104022156592E-005  7.695603591503746E-005 
 7.885685000213837E-005  8.080461419719195E-005  8.280048816786146E-005  8.484566022560842E-005 
 8.694134803318178E-005  8.908879932959969E-005  9.128929267304311E-005  9.354413820206634E-005 
 9.585467841565650E-005  9.822228897252268E-005  1.006483795101464E-004  1.031343944840449E-004 
 1.056818140278015E-004  1.082921548342892E-004  1.109669710586963E-004  1.137078552438450E-004 
 1.165164392683669E-004  1.193943953182963E-004  1.223434368826588E-004  1.253653197736601E-004 
 1.284618431720695E-004  1.316348506984192E-004  1.348862315106720E-004  1.382179214289855E-004 
 1.416319040882797E-004  1.451302121192599E-004  1.487149283586069E-004  1.523881870890652E-004 
 1.561521753101642E-004  1.600091340403256E-004  1.639613596511201E-004  1.680112052345029E-004 
 1.721610820037963E-004  1.764134607292892E-004  1.807708732093036E-004  1.852359137775731E-004 
 1.898112408478780E-004  1.944995784968222E-004  1.993037180856929E-004  2.042265199224087E-004 
 2.092709149644943E-004  2.144399065641167E-004  2.197365722562505E-004  2.251640655909801E-004 
 2.307256180110756E-004  2.364245407759488E-004  2.422642269331169E-004  2.482481533383556E-004 
 2.543798827258161E-004  2.606630658291471E-004  2.671014435551340E-004  2.736988492109328E-004 
 2.804592107864597E-004  2.873865532928770E-004  2.944850011592222E-004  3.017587806878422E-004 
 3.092122225708275E-004  3.168497644683226E-004  3.246759536506932E-004  3.326954497058637E-004 
 3.409130273136092E-004  3.493335790882644E-004  3.579621184917279E-004  3.668037828184717E-004 
 3.758638362540911E-004  3.851476730095681E-004  3.946608205329062E-004  4.044089428000652E-004 
 4.143978436872207E-004  4.246334704263008E-004  4.351219171458482E-004  4.458694284993332E-004 
 4.568824033832806E-004  4.681673987468492E-004  4.797311334958861E-004  4.915804924932405E-004 
 5.037225306578215E-004  5.161644771650636E-004  5.289137397510424E-004  5.419779091229004E-004 
 5.553647634782184E-004  5.690822731361384E-004  5.831386052826049E-004  5.975421288330917E-004 
 6.123014194152535E-004  6.274252644748220E-004  6.429226685073570E-004  6.588028584194863E-004 
 6.750752890224430E-004  6.917496486612906E-004  7.088358649832259E-004  7.263441108483064E-004 
 7.442848103862582E-004  7.626686452028063E-004  7.815065607393106E-004  8.008097727895850E-004 
 8.205897741774877E-004  8.408583415996738E-004  8.616275426371719E-004  8.829097429403207E-004 
 9.047176135909472E-004  9.270641386466405E-004  9.499626228711974E-004  9.734266996561184E-004 
 9.974703391376215E-004  1.022107856514319E-003  1.047353920570243E-003  1.073223562408325E-003 
 1.099732184399806E-003  1.126895569354474E-003  1.154729889917547E-003  1.183251718198503E-003 
 1.212478035638004E-003  1.242426243118256E-003  1.273114171323277E-003  1.304560091354968E-003 
 1.336782725611438E-003  1.369801258934044E-003  1.403635350029705E-003  1.438305143175440E-003 
 1.473831280211877E-003  1.510234912833095E-003  1.547537715180083E-003  1.585761896745037E-003 
 1.624930215594635E-003  1.665065991919831E-003  1.706193121920242E-003  1.748336092031677E-003 
 1.791519993504848E-003  1.835770537344419E-003  1.881114069616838E-003  1.927577587136367E-003 
 1.975188753538625E-003  2.023975915751026E-003  2.073968120870086E-003  2.125195133455572E-003 
 2.177687453251941E-003  2.231476333347257E-003  2.286593798780929E-003  2.343072665610830E-003 
 2.400946560451416E-003  2.460249940494483E-003  2.521018114024797E-003  2.583287261441124E-003 
 2.647094456798675E-003  2.712477689881634E-003  2.779475888821854E-003  2.848128943275575E-003 
 2.918477728174517E-003  2.990564128060624E-003  3.064431062023718E-003  3.140122509255509E-003 
 3.217683535234080E-003  3.297160318554494E-003  3.378600178422837E-003  3.462051602829780E-003 
 3.547564277419802E-003  3.635189115071900E-003  3.724978286214254E-003  3.816985249883822E-003 
 3.911264785555984E-003  4.007873025759149E-003  4.106867489495271E-003  4.208307116485829E-003 
 4.312252302263008E-003  4.418764934129034E-003  4.527908428001955E-003  4.639747766173732E-003 
 4.754349535998214E-003  4.871781969537295E-003  4.992114984184769E-003  5.115420224294248E-003 
 5.241771103834315E-003  5.371242850098960E-003  5.503912548496513E-003  5.639859188444356E-003 
 5.779163710398979E-003  5.921909054045754E-003  6.068180207680648E-003  6.218064258810462E-003 
 6.371650446003080E-003  6.529030212019197E-003  6.690297258256032E-003  6.855547600534987E-003 
 7.024879626268380E-003  7.198394153036991E-003  7.376194488617196E-003  7.558386492486011E-003 
 7.745078638850383E-003  7.936382081230037E-003  8.132410718636313E-003  8.333281263386526E-003 
 8.539113310592398E-003  8.750029409363820E-003  8.966155135775238E-003  9.187619167628867E-003 
 9.414553361069349E-003  9.647092829087722E-003  9.885376021966116E-003  1.012954480970864E-002 
 1.037974456650843E-002  1.063612425730133E-002  1.089883652645660E-002  1.116803778866010E-002 
 1.144388832203994E-002  1.172655236359438E-002  1.201619820697511E-002  1.231299830268738E-002 
 1.261712936076395E-002  1.292877245597476E-002  1.324811313563728E-002  1.357534153008756E-002 
 1.391065246588075E-002  1.425424558178797E-002  1.460632544765813E-002  1.496710168621538E-002 
 1.533678909786469E-002  1.571560778858200E-002  1.610378330096009E-002  1.650154674849364E-002 
 1.690913495318162E-002  1.732679058652502E-002  1.775476231401218E-002  1.819330494316833E-002 
 1.864267957526477E-002  1.910315376077375E-002  1.957500165866486E-002  2.005850419963386E-002 
 2.055394925336468E-002  2.106163179992279E-002  2.158185410538089E-002  2.211492590178399E-002 
 2.266116457155785E-002  2.322089533647541E-002  2.379445145128647E-002  2.438217440213315E-002 
 2.498441410986492E-002  2.560152913838018E-002  2.623388690809745E-002  2.688186391472866E-002 
 2.754584595342192E-002  2.822622834847175E-002  2.892341618867798E-002  2.963782456853864E-002 
 3.036987883538175E-002  3.112001484261422E-002  3.188867920922681E-002  3.267632958569677E-002 
 3.348343492646145E-002  3.431047576914564E-002  3.515794452064294E-002  3.602634575030486E-002 
 3.691619649033506E-002  3.782802654364766E-002  3.876237879927482E-002  3.971980955561882E-002 
 4.070088885164158E-002  4.170620080627674E-002  4.273634396619157E-002  4.379193166215703E-002 
 4.487359237421162E-002  4.598197010585559E-002  4.711772476747078E-002  4.828153256922709E-002 
 4.947408642368551E-002  5.069609635835141E-002  5.194828993840258E-002  5.323141269988236E-002 
 5.454622859356775E-002  5.589352043982969E-002  5.727409039469279E-002  5.868876042744126E-002 
 6.013837281000001E-002  6.162379061840608E-002  6.314589824668240E-002  6.470560193337518E-002 
 6.630383030112817E-002  6.794153490956691E-002  6.961969082183248E-002  7.133929718513282E-002 
 7.310137782560470E-002  7.490698185789851E-002  7.675718430978852E-002  7.865308676224046E-002 
 8.059581800526588E-002  8.258653470999749E-002  8.462642211733444E-002  8.671669474363106E-002 
 8.885859710379962E-002  9.105340445226418E-002  9.330242354223378E-002  9.560699340372712E-002 
 9.796848614079964E-002  1.003883077484763E-001  1.028678989498651E-001  1.054087360539257E-001 
 1.080123318344579E-001  1.106802364307701E-001  1.134140382706096E-001  1.162153650158926E-001 
 1.190858845317873E-001  1.220273058797208E-001  1.250413803349496E-001  1.281299024292228E-001 
 1.312947110192264E-001  1.345376903814015E-001  1.378607713338214E-001  1.412659323857659E-001 
 1.447552009156937E-001  1.483306543783124E-001  1.519944215414577E-001  1.557486837535305E-001 
 1.595956762422422E-001  1.635376894454256E-001  1.675770703747281E-001  1.717162240129829E-001 
 1.759576147461045E-001  1.803037678303343E-001  1.847572708957421E-001  1.893207754868666E-001 
 1.939969986413931E-001  1.987887245078366E-001  2.036988060031800E-001  2.087301665114573E-001 
 2.138858016242906E-001  2.191687809244093E-001  2.245822498132432E-001  2.301294313836308E-001 
 2.358136283388072E-001  2.416382249587739E-001  2.476066891152676E-001  2.537225743363993E-001 
 2.599895219225188E-001  2.664112631140058E-001  2.729916213129067E-001  2.797345143593461E-001 
 2.866439568640100E-001  2.937240625985533E-001  3.009790469447390E-001  3.084132294042836E-001 
 3.160310361705562E-001  3.238370027639860E-001  3.318357767322515E-001  3.400321204175444E-001 
 3.484309137918374E-001  3.570371573624947E-001  3.658559751493519E-001  3.748926177355555E-001 
 3.841524653936276E-001  3.936410312888295E-001  4.033639647616786E-001  4.133270546912773E-001 
 4.235362329421632E-001  4.339975778958268E-001  4.447173180698733E-001  4.557018358261954E-001 
 4.669576711710854E-001  4.784915256490171E-001  4.903102663325403E-001  5.024209299109695E-001 
 5.148307268797717E-001  5.275470458337015E-001  5.405774578657840E-001  5.539297210750717E-001 
 5.676117851856159E-001  5.816317962797042E-001  5.959981016478245E-001  6.107192547585332E-001 
 6.258040203510515E-001  6.412613796537197E-001  6.571005357311819E-001  6.733309189637238E-001 
 6.899621926621486E-001  7.070042588209061E-001  7.244672640137627E-001  7.423616054349211E-001 
 7.606979370891500E-001  7.794871761352659E-001  7.987405093857998E-001  8.184693999676296E-001 
 8.386855941468233E-001  8.594011283222571E-001  8.806283361918126E-001  9.023798560957428E-001 
 9.246686385413047E-001  9.475079539132936E-001  9.709114003749464E-001  9.948929119642150E-001 
 1.019466766889727E+000  1.044647596031901E+000  1.070450391653879E+000  1.096890516327735E+000 
 1.123983712081018E+000  1.151746109769430E+000  1.180194238680746E+000  1.209345036376139E+000 
 1.239215858774632E+000  1.269824490486376E+000  1.301189155401393E+000  1.333328527539796E+000 
 1.366261742170032E+000  1.400008407201630E+000  1.434588614859523E+000  1.470022953646555E+000 
 1.506332520601617E+000  1.543538933860469E+000  1.581664345526822E+000  1.620731454861333E+000 
 1.660763521796407E+000  1.701784380784775E+000  1.743818454990165E+000  1.786890770828422E+000 
 1.831026972867882E+000  1.876253339097723E+000  1.922596796573442E+000
    </PP_RAB>
  </PP_MESH>