<UPF version="2.0.1">
  <PP_INFO>
    Generated using FHI98PP, converted with fhi2upf.x v.5.0.1
    Author: Abinit web site
    Generation date: 10-Jul-2012, PG
    Pseudopotential type: SL
    Element: Ga
    Functional: SLA-PW

    Suggested minimum cutoff for wavefunctions:   0. Ry
    Suggested minimum cutoff for charge density:   0. Ry
    The Pseudo was generated with a Non-Relativistic Calculation
    L component and cutoff radius for Local Potential:  0   0.0000

    Valence configuration: 
    nl pn  l   occ       Rcut    Rcut US       E pseu
    4s  4  0  2.00      0.000      0.000     0.000000
    4p  4  1  1.00      0.000      0.000     0.000000
    4d  4  2  0.00      0.000      0.000     0.000000
    4f  4  3  0.00      0.000      0.000     0.000000

    Generation configuration: not available.
    Comment:
    gallium, fhi98PP : Trouiller-Martins-type, LDA Ceperley/Alder Perdew/Wang (1992)
  </PP_INFO>
  <!--                               -->
  <!-- END OF HUMAN READABLE SECTION -->
  <!--                               -->
  <PP_HEADER generated="Generated using FHI98PP, converted with fhi2upf.x v.5.0.1"
             author="Abinit web site"
             date="10-Jul-2012, PG"
             comment="gallium, fhi98PP : Trouiller-Martins-type, LDA Ceperley/Alder Perdew/Wang (1992)"
             element="Ga"
             pseudo_type="SL"
             relativistic="no"
             is_ultrasoft="F"
             is_paw="F"
             is_coulomb="F"
             has_so="F"
             has_wfc="F"
             has_gipaw="F"
             paw_as_gipaw="F"
             core_correction="F"
             functional="SLA-PW"
             z_valence="3.000000000000000E+000"
             total_psenergy="0.000000000000000E+000"
             wfc_cutoff="0.000000000000000E+000"
             rho_cutoff="0.000000000000000E+000"
             l_max="3"
             l_max_rho="0"
             l_local="0"
             mesh_size="529"
             number_of_wfc="4"
             number_of_proj="3"/>
  <PP_MESH dx="2.439988682353512E-002" mesh="529" xmin="-5.075173815233810E+000" rmax="7.935879057320800E+001"
zmesh="3.100000000000000E+001">
    <PP_R type="real" size="529" columns="4">
 2.016129032258100E-004  2.065927419354800E-004  2.116955826612900E-004  2.169244635530200E-004 
 2.222824978027800E-004  2.277728754985100E-004  2.333988655233300E-004  2.391638175017500E-004 
 2.450711637940500E-004  2.511244215397600E-004  2.573271947517900E-004  2.636831764621600E-004 
 2.701961509207700E-004  2.768699958485200E-004  2.837086847459800E-004  2.907162892592000E-004 
 2.978969816039000E-004  3.052550370495200E-004  3.127948364646400E-004  3.205208689253200E-004 
 3.284377343877800E-004  3.365501464271500E-004  3.448629350439000E-004  3.533810495394900E-004 
 3.621095614631100E-004  3.710536676312500E-004  3.802186932217500E-004  3.896100949443200E-004 
 3.992334642894500E-004  4.090945308574000E-004  4.191991657695700E-004  4.295533851640800E-004 
 4.401633537776400E-004  4.510353886159400E-004  4.621759627147600E-004  4.735917089938100E-004 
 4.852894242059600E-004  4.972760729838500E-004  5.095587919865500E-004  5.221448941486100E-004 
 5.350418730340800E-004  5.482574072980300E-004  5.617993652582900E-004  5.756758095801700E-004 
 5.898950020768000E-004  6.044654086280900E-004  6.193957042212100E-004  6.346947781154701E-004 
 6.503717391349200E-004  6.664359210915600E-004  6.828968883425200E-004  6.997644414845800E-004 
 7.170486231892500E-004  7.347597241820200E-004  7.529082893693200E-004  7.715051241167400E-004 
 7.905613006824200E-004  8.100881648092800E-004  8.300973424800700E-004  8.506007468393300E-004 
 8.716105852862600E-004  8.931393667428300E-004  9.151999091013800E-004  9.378053468561800E-004 
 9.609691389235300E-004  9.847050766549400E-004  1.009027292048300E-003  1.033950266161900E-003 
 1.059488837736100E-003  1.085658212028200E-003  1.112473969865300E-003  1.139952076921000E-003 
 1.168108893220900E-003  1.196961182883500E-003  1.226526124100700E-003  1.256821319366000E-003 
 1.287864805954300E-003  1.319675066661400E-003  1.352271040807900E-003  1.385672135515900E-003 
 1.419898237263100E-003  1.454969723723500E-003  1.490907475899500E-003  1.527732890554200E-003 
 1.565467892950900E-003  1.604134949906800E-003  1.643757083169500E-003  1.684357883123800E-003 
 1.725961522836900E-003  1.768592772451000E-003  1.812277013930500E-003  1.857040256174600E-003 
 1.902909150502100E-003  1.949911006519500E-003  1.998073808380600E-003  2.047426231447600E-003 
 2.097997659364300E-003  2.149818201550600E-003  2.202918711128900E-003  2.257330803293800E-003 
 2.313086874135200E-003  2.370220119926300E-003  2.428764556888500E-003  2.488755041443600E-003 
 2.550227290967300E-003  2.613217905054200E-003  2.677764387309000E-003  2.743905167675500E-003 
 2.811679625317100E-003  2.881128112062500E-003  2.952291976430400E-003  3.025213588248200E-003 
 3.099936363878000E-003  3.176504792065700E-003  3.254964460429800E-003  3.335362082602400E-003 
 3.417745526042700E-003  3.502163840535900E-003  3.588667287397100E-003  3.677307369395900E-003 
 3.768136861419900E-003  3.861209841897000E-003  3.956581724991900E-003  4.054309293599200E-003 
 4.154450733151100E-003  4.257065666259900E-003  4.362215188216500E-003  4.469961903365500E-003 
 4.580369962378600E-003  4.693505100449300E-003  4.809434676430400E-003  4.928227712938300E-003 
 5.049954937447800E-003  5.174688824402800E-003  5.302503638365600E-003  5.433475478233200E-003 
 5.567682322545500E-003  5.705204075912400E-003  5.846122616587500E-003  5.990521845217200E-003 
 6.138487734794000E-003  6.290108381843400E-003  6.445474058875000E-003  6.604677268129200E-003 
 6.767812796652000E-003  6.934977772729300E-003  7.106271723715700E-003  7.281796635291500E-003 
 7.461657012183200E-003  7.645959940384100E-003  7.834815150911599E-003  8.028335085139100E-003 
 8.226634961742000E-003  8.429832845297100E-003  8.638049716575899E-003  8.851409544575301E-003 
 9.070039360326300E-003  9.294069332526401E-003  9.523632845039799E-003  9.758866576312300E-003 
 9.999910580747199E-003  1.024690837209200E-002  1.050000700888200E-002  1.075935718200200E-002 
 1.102511330439700E-002  1.129743360301600E-002  1.157648021301000E-002  1.186241927427200E-002 
 1.215542103034600E-002  1.245565992979600E-002  1.276331473006200E-002  1.307856860389400E-002 
 1.340160924841000E-002  1.373262899684600E-002  1.407182493306800E-002  1.441939900891500E-002 
 1.477555816443500E-002  1.514051445109700E-002  1.551448515803900E-002  1.589769294144200E-002 
 1.629036595709600E-002  1.669273799623600E-002  1.710504862474300E-002  1.752754332577400E-002 
 1.796047364592100E-002  1.840409734497500E-002  1.885867854939600E-002  1.932448790956600E-002 
 1.980180276093200E-002  2.029090728912800E-002  2.079209269916900E-002  2.130565738883800E-002 
 2.183190712634300E-002  2.237115523236300E-002  2.292372276660300E-002  2.348993871893800E-002 
 2.407014020529600E-002  2.466467266836600E-002  2.527389008327500E-002  2.589815516833200E-002 
 2.653783960099000E-002  2.719332423913400E-002  2.786499934784100E-002  2.855326483173300E-002 
 2.925853047307600E-002  2.998121617576100E-002  3.072175221530300E-002  3.148057949502100E-002 
 3.225814980854800E-002  3.305492610881900E-002  3.387138278370700E-002  3.470800593846400E-002 
 3.556529368514400E-002  3.644375643916700E-002  3.734391722321500E-002  3.826631197862800E-002 
 3.921148988450000E-002  4.018001368464700E-002  4.117246002265800E-002  4.218941978521800E-002 
 4.323149845391300E-002  4.429931646572400E-002  4.539350958242800E-002  4.651472926911400E-002 
 4.766364308206100E-002  4.884093506618800E-002  5.004730616232200E-002  5.128347462453200E-002 
 5.255017644775800E-002  5.384816580601700E-002  5.517821550142600E-002  5.654111742431100E-002 
 5.793768302469200E-002  5.936874379540200E-002  6.083515176714800E-002  6.233778001579600E-002 
 6.387752318218699E-002  6.545529800478700E-002  6.707204386550500E-002  6.872872334898300E-002 
 7.042632281570300E-002  7.216585298925100E-002  7.394834955808501E-002  7.577487379217000E-002 
 7.764651317483599E-002  7.956438205025500E-002  8.152962228689600E-002  8.354340395738200E-002 
 8.560692603513000E-002  8.772141710819700E-002  8.988813611077000E-002  9.210837307270600E-002 
 9.438344988760200E-002  9.671472109982600E-002  9.910357471099100E-002  1.015514330063500E-001 
 1.040597534016100E-001  1.066300293106300E-001  1.092637910346000E-001  1.119626066731600E-001 
 1.147280830579800E-001  1.175618667095200E-001  1.204656448172400E-001  1.234411462442300E-001 
 1.264901425564600E-001  1.296144490776000E-001  1.328159259698200E-001  1.360964793412700E-001 
 1.394580623810000E-001  1.429026765218200E-001  1.464323726319000E-001  1.500492522359100E-001 
 1.537554687661400E-001  1.575532288446600E-001  1.614447935971300E-001  1.654324799989700E-001 
 1.695186622549500E-001  1.737057732126500E-001  1.779963058110000E-001  1.823928145645300E-001 
 1.868979170842700E-001  1.915142956362600E-001  1.962446987384700E-001  2.010919427973100E-001 
 2.060589137844100E-001  2.111485689548800E-001  2.163639386080700E-001  2.217081278916900E-001 
 2.271843186506100E-001  2.327957713212800E-001  2.385458268729200E-001  2.444379087966800E-001 
 2.504755251439500E-001  2.566622706150100E-001  2.630018286992000E-001  2.694979738680700E-001 
 2.761545738226100E-001  2.829755917960300E-001  2.899650889133900E-001  2.971272266095500E-001 
 3.044662691068100E-001  3.119865859537500E-001  3.196926546268100E-001  3.275890631960900E-001 
 3.356805130570300E-001  3.439718217295400E-001  3.524679257262600E-001  3.611738834917000E-001 
 3.700948784139400E-001  3.792362219107700E-001  3.886033565919600E-001  3.982018594997800E-001 
 4.080374454294300E-001  4.181159703315400E-001  4.284434347987200E-001  4.390259876382500E-001 
 4.498699295329200E-001  4.609817167923800E-001  4.723679651971500E-001  4.840354539375200E-001 
 4.959911296497800E-001  5.082421105521300E-001  5.207956906827700E-001  5.336593442426300E-001 
 5.468407300454200E-001  5.603476960775400E-001  5.741882841706600E-001  5.883707347896800E-001 
 6.029034919389800E-001  6.177952081898700E-001  6.330547498321600E-001  6.486912021530200E-001 
 6.647138748462000E-001  6.811323075549000E-001  6.979562755515000E-001  7.151957955576300E-001 
 7.328611317079000E-001  7.509628016610800E-001  7.695115828621100E-001  7.885185189588100E-001 
 8.079949263770900E-001  8.279524010586000E-001  8.484028253647500E-001  8.693583751512600E-001 
 8.908315270175000E-001  9.128350657348300E-001  9.353820918584800E-001  9.584860295273800E-001 
 9.821606344567100E-001  1.006420002127800E+000  1.031278576180300E+000  1.056751157012000E+000 
 1.082852910590200E+000  1.109599377481800E+000  1.137006482105600E+000  1.165090542213600E+000 
 1.193868278606300E+000  1.223356825087800E+000  1.253573738667500E+000  1.284537010012600E+000 
 1.316265074159900E+000  1.348776821491700E+000  1.382091608982500E+000  1.416229271724400E+000 
 1.451210134736000E+000  1.487055025063900E+000  1.523785284183000E+000  1.561422780702300E+000 
 1.599989923385700E+000  1.639509674493300E+000  1.680005563453300E+000  1.721501700870600E+000 
 1.764022792882100E+000  1.807594155866300E+000  1.852241731516200E+000  1.897992102284600E+000 
 1.944872507211100E+000  1.992910858139200E+000  2.042135756335200E+000  2.092576509516700E+000 
 2.144263149301700E+000  2.197226449089500E+000  2.251497942382000E+000  2.307109941558800E+000 
 2.364095557115300E+000  2.422488717376100E+000  2.482324188695300E+000  2.543637596156100E+000 
 2.606465444781100E+000  2.670845141267200E+000  2.736815016256500E+000  2.804414347158000E+000 
 2.873683381532800E+000  2.944663361056700E+000  3.017396546074800E+000  3.091926240762900E+000 
 3.168296818909700E+000  3.246553750336800E+000  3.326743627970100E+000  3.408914195580900E+000 
 3.493114376211800E+000  3.579394301304200E+000  3.667805340546400E+000  3.758400132457900E+000 
 3.851232615729600E+000  3.946358061338200E+000  4.043833105453200E+000  4.143715783157900E+000 
 4.246065563001900E+000  4.350943382408100E+000  4.458411683953500E+000  4.568534452547200E+000 
 4.681377253525100E+000  4.797007271687200E+000  4.915493351297800E+000  5.036906037074900E+000 
 5.161317616190700E+000  5.288802161310600E+000  5.419435574694900E+000  5.553295633389900E+000 
 5.690462035534600E+000  5.831016447812300E+000  5.975042554073300E+000  6.122626105158900E+000 
 6.273854969956300E+000  6.428819187714300E+000  6.587611021650800E+000  6.750325013885600E+000 
 6.917058041728500E+000  7.087909375359200E+000  7.262980736930600E+000  7.442376361132800E+000 
 7.626203057252800E+000  7.814570272766900E+000  8.007590158504300E+000  8.205377635419300E+000 
 8.408050463014201E+000  8.615729309450600E+000  8.828537823394100E+000  9.046602707631900E+000 
 9.270053794510400E+000  9.499024123234800E+000  9.733650019078700E+000  9.974071174549900E+000 
 1.022043073256100E+001  1.047287537165600E+001  1.073155539333500E+001  1.099662481155100E+001 
 1.126824144439600E+001  1.154656700807300E+001  1.183176721317200E+001  1.212401186333800E+001 
 1.242347495636200E+001  1.273033478778400E+001  1.304477405704200E+001  1.336697997625100E+001 
 1.369714438166500E+001  1.403546384789200E+001  1.438213980493500E+001  1.473737865811700E+001 
 1.510139191097200E+001  1.547439629117300E+001  1.585661387956500E+001  1.624827224239000E+001 
 1.664960456677700E+001  1.706084979957700E+001  1.748225278962600E+001  1.791406443353000E+001 
 1.835654182503800E+001  1.880994840811700E+001  1.927455413379700E+001  1.975063562090200E+001 
 2.023847632073800E+001  2.073836668586100E+001  2.125060434300100E+001  2.177549427027300E+001 
 2.231334897874900E+001  2.286448869852400E+001  2.342924156937800E+001  2.400794383614100E+001 
 2.460094004889400E+001  2.520858326810200E+001  2.583123527482400E+001  2.646926678611200E+001 
 2.712305767572900E+001  2.779299720032000E+001  2.847948423116700E+001  2.918292749167700E+001 
 2.990374580072200E+001  3.064236832200000E+001  3.139923481955300E+001  3.217479591959600E+001 
 3.296951337881000E+001  3.378386035926700E+001  3.461832171014000E+001  3.547339425638100E+001 
 3.634958709451300E+001  3.724742189574800E+001  3.816743321657300E+001  3.911016881702200E+001 
 4.007618998680300E+001  4.106607187947700E+001  4.208040385490000E+001  4.311978983011600E+001 
 4.418484863892000E+001  4.527621440030100E+001  4.639453689598800E+001  4.754048195731900E+001 
 4.871473186166500E+001  4.991798573864800E+001  5.115095998639300E+001  5.241438869805700E+001 
 5.370902409889900E+001  5.503563699414200E+001  5.639501722789700E+001  5.778797415342600E+001 
 5.921533711501600E+001  6.067795594175600E+001  6.217670145351800E+001  6.371246597942000E+001 
 6.528616388911099E+001  6.689873213717200E+001  6.855113082096101E+001  7.024434375223800E+001 
 7.197937904291901E+001  7.375726970527900E+001  7.557907426699900E+001  7.744587740139400E+001 
 7.935879057320800E+001
    </PP_R>
    <PP_RAB type="real" size="529" columns="4">
 4.919332020874103E-006  5.040839521789510E-006  5.165348257977800E-006  5.292932359949758E-006 
 5.423667789240526E-006  5.557632383634800E-006  5.694905903510746E-006  5.835570079327308E-006 
 5.979708660286858E-006  6.127407464195870E-006  6.278754428561457E-006  6.433839662946944E-006 
 6.592755502621603E-006  6.755596563536526E-006  6.922459798655917E-006  7.093444555682579E-006 
 7.268652636207885E-006  7.448188356322309E-006  7.632158608723392E-006  7.820672926358944E-006 
 8.013843547640121E-006  8.211785483266632E-006  8.414616584703304E-006  8.622457614345614E-006 
 8.835432317419820E-006  9.053667495660117E-006  9.277293082803121E-006  9.506442221948181E-006 
 9.741251344830430E-006  9.981860253047756E-006  1.022841220129785E-005  1.048105398266994E-005 
 1.073993601604207E-005  1.100521243563812E-005  1.127704118279853E-005  1.155558410001354E-005 
 1.184100702728395E-005  1.213347990085793E-005  1.243317685440910E-005  1.274027632271281E-005 
 1.305496114788380E-005  1.337741868823673E-005  1.370784092983614E-005  1.404642460080310E-005 
 1.439337128844294E-005  1.474888755926731E-005  1.511318508198136E-005  1.548648075350621E-005 
 1.586899682811776E-005  1.626096104977244E-005  1.666260678770179E-005  1.707417317535802E-005 
 1.749590525278938E-005  1.792805411253317E-005  1.837087704911284E-005  1.882463771222587E-005 
 1.928960626371777E-005  1.976605953843170E-005  2.025428120903098E-005  2.075456195489410E-005 
 2.126719963517995E-005  2.179249946616888E-005  2.233077420298330E-005  2.288234432579689E-005 
 2.344753823064413E-005  2.402669242494101E-005  2.462015172783664E-005  2.522826947551438E-005 
 2.585140773155961E-005  2.648993750252958E-005  2.714423895884214E-005  2.781470166112620E-005 
 2.850172479215483E-005  2.920571739452213E-005  2.992709861416627E-005  3.066629794993649E-005 
 3.142375550929894E-005  3.219992227037932E-005  3.299526035045680E-005  3.381024328111418E-005 
 3.464535629015666E-005  3.550109659052356E-005  3.637797367631021E-005  3.727650962611465E-005 
 3.819723941387995E-005  3.914071122740310E-005  4.010748679472001E-005  4.109814171854992E-005 
 4.211326581899669E-005  4.315346348472660E-005  4.421935403279838E-005  4.531157207740891E-005 
 4.643076790772060E-005  4.757760787504125E-005  4.875277478955644E-005  4.995696832685846E-005 
 5.119090544453051E-005  5.245532080901045E-005  5.375096723299302E-005  5.507861612364834E-005 
 5.643905794190351E-005  5.783310267306756E-005  5.926158030909283E-005  6.072534134272630E-005 
 6.222525727389270E-005  6.376222112855803E-005  6.533714799043246E-005  6.695097554579535E-005 
 6.860466464177687E-005  7.029919985843041E-005  7.203559009493258E-005  7.381486917027665E-005 
 7.563809643878419E-005  7.750635742082005E-005  7.942076444911619E-005  8.138245733100896E-005 
 8.339260402708539E-005  8.545240134655306E-005  8.756307565981202E-005  8.972588362861162E-005 
 9.194211295423640E-005  9.421308314420674E-005  9.654014629786971E-005  9.892468791142711E-005 
 1.013681277028394E-004  1.038719204570987E-004  1.064375568923886E-004  1.090665645476318E-004 
 1.117605086919577E-004  1.145209932566478E-004  1.173496617900870E-004  1.202481984363039E-004 
 1.232183289376787E-004  1.262618216624403E-004  1.293804886575038E-004  1.325761867273434E-004 
 1.358508185395074E-004  1.392063337574338E-004  1.426447302012440E-004  1.461680550372144E-004 
 1.497784059966321E-004  1.534779326247486E-004  1.572688375605816E-004  1.611533778483276E-004 
 1.651338662811815E-004  1.692126727783266E-004  1.733922257959509E-004  1.776750137731114E-004 
 1.820635866133073E-004  1.865605572026554E-004  1.911686029655613E-004  1.958904674588102E-004 
 2.007289620050420E-004  2.056869673665683E-004  2.107674354605216E-004  2.159733911163959E-004 
 2.213079338769706E-004  2.267742398437328E-004  2.323755635678729E-004  2.381152399879998E-004 
 2.439966864157030E-004  2.500234045701793E-004  2.561989826630463E-004  2.625270975348385E-004 
 2.690115168439381E-004  2.756561013099930E-004  2.824648070123378E-004  2.894416877455584E-004 
 2.965908974328610E-004  3.039166925994638E-004  3.114234349066715E-004  3.191155937488533E-004 
 3.269977489144456E-004  3.350745933126390E-004  3.433509357674589E-004  3.518317038809205E-004 
 3.605219469667744E-004  3.694268390568648E-004  3.785516819815670E-004  3.879019085264979E-004 
 3.974830856671118E-004  4.073009178830828E-004  4.173612505547943E-004  4.276700734434940E-004 
 4.382335242575576E-004  4.490578923067132E-004  4.601496222466919E-004  4.715153179161832E-004 
 4.831617462687061E-004  4.950958414015670E-004  5.073247086841745E-004  5.198556289886620E-004 
 5.326960630246991E-004  5.458536557813927E-004  5.593362410792086E-004  5.731518462338628E-004 
 5.873086968358448E-004  6.018152216476704E-004  6.166800576223767E-004  6.319120550456519E-004 
 6.475202828052845E-004  6.635140337905639E-004  6.799028304252004E-004  6.966964303367108E-004 
 7.139048321660079E-004  7.315382815205088E-004  7.496072770740825E-004  7.681225768178128E-004 
 7.870952044652124E-004  8.065364560154998E-004  8.264579064790868E-004  8.468714167691065E-004 
 8.677891407633019E-004  8.892235325401542E-004  9.111873537939099E-004  9.336936814326095E-004 
 9.567559153639923E-004  9.803877864734791E-004  1.004603364799379E-003  1.029417067909933E-003 
 1.054843669487311E-003  1.080898308123631E-003  1.107596496334300E-003  1.134954129793758E-003 
 1.162987496799661E-003  1.191713287970615E-003  1.221148606183469E-003  1.251310976756216E-003 
 1.282218357882096E-003  1.313889151321769E-003  1.346342213359426E-003  1.379596866029398E-003 
 1.413672908620337E-003  1.448590629463262E-003  1.484370818010994E-003  1.521034777215852E-003 
 1.558604336213104E-003  1.597101863317567E-003  1.636550279341505E-003  1.676973071241241E-003 
 1.718394306100903E-003  1.760838645461598E-003  1.804331360004488E-003  1.848898344596606E-003 
 1.894566133708127E-003  1.941361917210731E-003  1.989313556565829E-003  2.038449601412997E-003 
 2.088799306567914E-003  2.140392649440125E-003  2.193260347881308E-003  2.247433878473976E-003 
 2.302945495272287E-003  2.359828249005518E-003  2.418116006755938E-003  2.477843472122749E-003 
 2.539046205884258E-003  2.601760647169605E-003  2.666024135154631E-003  2.731874931293082E-003 
 2.799352242095849E-003  2.868496242475809E-003  2.939348099664836E-003  3.011949997726659E-003 
 3.086345162670447E-003  3.162577888188296E-003  3.240693562026627E-003  3.320738693008574E-003 
 3.402760938725901E-003  3.486809133912658E-003  3.572933319520082E-003  3.661184772512279E-003 
 3.751616036393405E-003  3.844280952492233E-003  3.939234692018959E-003  4.036533788911605E-003 
 4.136236173497855E-003  4.238401206983319E-003  4.343089716795747E-003  4.450364032800560E-003 
 4.560288024410639E-003  4.672927138613790E-003  4.788348438937414E-003  4.906620645379162E-003 
 5.027814175320185E-003  5.152001185450473E-003  5.279255614731209E-003  5.409653228415087E-003 
 5.543271663156824E-003  5.680190473236795E-003  5.820491177925851E-003  5.964257310020592E-003 
 6.111574465577905E-003  6.262530354877788E-003  6.417214854643252E-003  6.575720061552934E-003 
 6.738140347073258E-003  6.904572413646005E-003  7.075115352263015E-003  7.249870701463892E-003 
 7.428942507790152E-003  7.612437387732612E-003  7.800464591209666E-003  7.993136066612489E-003 
 8.190566527457735E-003  8.392873520685974E-003  8.600177496646927E-003  8.812601880814140E-003 
 9.030273147270127E-003  9.253320894007839E-003  9.481877920089685E-003  9.716080304715866E-003 
 9.956067488242480E-003  1.020198235520215E-002  1.045397131937542E-002  1.071218441096403E-002 
 1.097677536591497E-002  1.124790171745299E-002  1.152572488987404E-002  1.181041029465394E-002 
 1.210212742893197E-002  1.240104997642660E-002  1.270735591084439E-002  1.302122760184214E-002 
 1.334285192360757E-002  1.367242036612063E-002  1.401012914916393E-002  1.435617933914839E-002 
 1.471077696882523E-002  1.507413315995515E-002  1.544646424900604E-002  1.582799191595663E-002 
 1.621894331628077E-002  1.661955121619288E-002  1.703005413123269E-002  1.745069646827433E-002 
 1.788172867104063E-002  1.832340736921520E-002  1.877599553123485E-002  1.923976262085650E-002 
 1.971498475759159E-002  2.020194488110400E-002  2.070093291966733E-002  2.121224596278313E-002 
 2.173618843806397E-002  2.227307229248409E-002  2.282321717810844E-002  2.338695064240762E-002 
 2.396460832327517E-002  2.455653414886030E-002  2.516308054233576E-002  2.578460863173259E-002 
 2.642148846493648E-002  2.707409923002095E-002  2.774282948100245E-002  2.842807736918301E-002 
 2.913025088020241E-002  2.984976807694157E-002  3.058705734844280E-002  3.134255766494964E-002 
 3.211671883927363E-002  3.291000179460491E-002  3.372287883893055E-002  3.455583394625293E-002 
 3.540936304472556E-002  3.628397431192835E-002  3.718018847743350E-002  3.809853913282562E-002 
 3.903957304940771E-002  4.000385050372743E-002  4.099194561116987E-002  4.200444666776585E-002 
 4.304195650045958E-002  4.410509282602122E-002  4.519448861882401E-002  4.631079248770774E-002 
 4.745466906215583E-002  4.862679938799074E-002  4.982788133287317E-002  5.105863000179565E-002 
 5.231977816283847E-002  5.361207668346175E-002  5.493629497754300E-002  5.629322146348745E-002 
 5.768366403363553E-002  5.910845053526759E-002  6.056842926348896E-002  6.206446946629778E-002 
 6.359746186211397E-002  6.516831917010836E-002  6.677797665361003E-002  6.842739267695333E-002 
 7.011754927607401E-002  7.184945274319401E-002  7.362413422595089E-002  7.544265034133316E-002 
 7.730608380476303E-002  7.921554407474142E-002  8.117216801338707E-002  8.317712056331623E-002 
 8.523159544123141E-002  8.733681584862905E-002  8.949403520008985E-002  9.170453786953217E-002 
 9.396963995490937E-002  9.629069006179755E-002  9.866907010632264E-002  1.011061961379490E-001 
 1.036035191825563E-001  1.061625261063667E-001  1.087847405011920E-001  1.114717235915727E-001 
 1.142250751642841E-001  1.170464345208427E-001  1.199374814535057E-001  1.228999372454083E-001 
 1.259355656953711E-001  1.290461741680466E-001  1.322336146699956E-001  1.354997849523454E-001 
 1.388466296406675E-001  1.422761413927919E-001  1.457903620851947E-001  1.493913840286988E-001 
 1.530813512142071E-001  1.568624605891999E-001  1.607369633657521E-001  1.647071663608868E-001 
 1.687754333699989E-001  1.729441865742380E-001  1.772159079826224E-001  1.815931409097935E-001 
 1.860784914902659E-001  1.906746302300744E-001  1.953842935967586E-001  2.002102856485971E-001 
 2.051554797041186E-001  2.102228200528090E-001  2.154153237081151E-001  2.207360822037047E-001 
 2.261882634341361E-001  2.317751135409591E-001  2.374999588454208E-001  2.433662078289016E-001 
 2.493773531622686E-001  2.555369737853947E-001  2.618487370378719E-001  2.683164008427226E-001 
 2.749438159435303E-001  2.817349281973457E-001  2.886937809238104E-001  2.958245173126444E-001 
 3.031313828902557E-001  3.106187280476416E-001  3.182910106304119E-001  3.261527985929846E-001 
 3.342087727182460E-001  3.424637294043836E-001  3.509225835206735E-001  3.595903713336367E-001 
 3.684722535055656E-001  3.775735181671528E-001  3.868995840658822E-001  3.964560037923033E-001 
 4.062484670859723E-001  4.162828042230106E-001  4.265649894873055E-001  4.371011447276478E-001 
 4.478975430024161E-001  4.589606123145894E-001  4.702969394387478E-001  4.819132738428901E-001 
 4.938165317068026E-001  5.060138000399795E-001  5.185123409009483E-001  5.313195957211987E-001 
 5.444431897355186E-001  5.578909365219834E-001  5.716708426540876E-001  5.857911124676279E-001 
 6.002601529455862E-001  6.150865787233499E-001  6.302792172178138E-001  6.458471138830900E-001 
 6.617995375960032E-001  6.781459861746364E-001  6.948961920331279E-001  7.120601279763504E-001 
 7.296480131373805E-001  7.476703190618778E-001  7.661377759426965E-001  7.850613790084821E-001 
 8.044523950699910E-001  8.243223692282294E-001  8.446831317481448E-001  8.655468051023372E-001 
 8.869258111883500E-001  9.088328787247151E-001  9.312810508292163E-001  9.542836927846893E-001 
 9.778544999964847E-001  1.002007506146397E+000  1.026757091548211E+000  1.052117991709451E+000 
 1.078105306104678E+000  1.104734507165456E+000  1.132021449492431E+000  1.159982379294897E+000 
 1.188633944063486E+000  1.217993202481851E+000  1.248077634583163E+000  1.278905152157369E+000 
 1.310494109415656E+000  1.342863313918228E+000  1.376032037772000E+000  1.410020029104967E+000 
 1.444847523823869E+000  1.480535257662297E+000  1.517104478526571E+000  1.554576959146180E+000 
 1.592975010037074E+000  1.632321492784989E+000  1.672639833656799E+000  1.713954037548103E+000 
 1.756288702275560E+000  1.799669033221763E+000  1.844120858342331E+000  1.889670643543390E+000 
 1.936345508438901E+000
    </PP_RAB>
  </PP_MESH>
  <PP_LOCAL type="real" size="529" columns="4">
 5.241397366516800E-001  5.241396409794600E-001  5.241395476524000E-001  5.241394566159800E-001 
 5.241393678170000E-001  5.241392812037000E-001  5.241391967256400E-001  5.241391143337401E-001 
 5.241390339801800E-001  5.241389556184800E-001  5.241388792033400E-001  5.241388046907600E-001 
 5.241387320378800E-001  5.241386612030600E-001  5.241385921458200E-001  5.241385248268200E-001 
 5.241384592078600E-001  5.241383952517999E-001  5.241383329226400E-001  5.241382721854000E-001 
 5.241382130062000E-001  5.241381553522000E-001  5.241380991915400E-001  5.241380444934400E-001 
 5.241379912280600E-001  5.241379393665800E-001  5.241378888811800E-001  5.241378397449800E-001 
 5.241377919320600E-001  5.241377454174800E-001  5.241377001772400E-001  5.241376561882600E-001 
 5.241376134284600E-001  5.241375718766000E-001  5.241375315124600E-001  5.241374923167200E-001 
 5.241374542709800E-001  5.241374173578000E-001  5.241373815606200E-001  5.241373468638800E-001 
 5.241373132529400E-001  5.241372807140799E-001  5.241372492345600E-001  5.241372188026000E-001 
 5.241371894074000E-001  5.241371610391400E-001  5.241371336889400E-001  5.241371073490400E-001 
 5.241370820126000E-001  5.241370576738800E-001  5.241370343281599E-001  5.241370119718600E-001 
 5.241369906024400E-001  5.241369702185200E-001  5.241369508198800E-001  5.241369324074800E-001 
 5.241369149834399E-001  5.241368985512200E-001  5.241368831154800E-001  5.241368686822200E-001 
 5.241368552588200E-001  5.241368428540200E-001  5.241368314780400E-001  5.241368211425800E-001 
 5.241368118608600E-001  5.241368036477400E-001  5.241367965197000E-001  5.241367904949600E-001 
 5.241367855934800E-001  5.241367818371000E-001  5.241367792496000E-001  5.241367778567000E-001 
 5.241367776862400E-001  5.241367787682000E-001  5.241367811348000E-001  5.241367848206400E-001 
 5.241367898627400E-001  5.241367963006800E-001  5.241368041766600E-001  5.241368135357199E-001 