<UPF version="2.0.1">
  <PP_INFO>
    Generated using FHI98PP, converted with fhi2upf.x v.5.0.1
    Author: Abinit web site
    Generation date: 10-Jul-2012, PG
    Pseudopotential type: SL
    Element: Gd
    Functional: SLA-PW

    Suggested minimum cutoff for wavefunctions:   0. Ry
    Suggested minimum cutoff for charge density:   0. Ry
    The Pseudo was generated with a Non-Relativistic Calculation
    L component and cutoff radius for Local Potential:  0   0.0000

    Valence configuration: 
    nl pn  l   occ       Rcut    Rcut US       E pseu
    6s  6  0  2.00      0.000      0.000     0.000000
    6p  6  1  0.00      0.000      0.000     0.000000
    5d  5  2  1.00      0.000      0.000     0.000000
    4f  4  3  7.00      0.000      0.000     0.000000

    Generation configuration: not available.
    Comment:
    gadolinium, fhi98PP : Trouiller-Martins-type, LDA Ceperley/Alder Perdew/Wang (19
  </PP_INFO>
  <!--                               -->
  <!-- END OF HUMAN READABLE SECTION -->
  <!--                               -->
  <PP_HEADER generated="Generated using FHI98PP, converted with fhi2upf.x v.5.0.1"
             author="Abinit web site"
             date="10-Jul-2012, PG"
             comment="gadolinium, fhi98PP : Trouiller-Martins-type, LDA Ceperley/Alder Perdew/Wang (19"
             element="Gd"
             pseudo_type="SL"
             relativistic="no"
             is_ultrasoft="F"
             is_paw="F"
             is_coulomb="F"
             has_so="F"
             has_wfc="F"
             has_gipaw="F"
             paw_as_gipaw="F"
             core_correction="F"
             functional="SLA-PW"
             z_valence="1.000000000000000E+001"
             total_psenergy="0.000000000000000E+000"
             wfc_cutoff="0.000000000000000E+000"
             rho_cutoff="0.000000000000000E+000"
             l_max="3"
             l_max_rho="0"
             l_local="0"
             mesh_size="559"
             number_of_wfc="4"
             number_of_proj="3"/>
  <PP_MESH dx="2.439988682353512E-002" mesh="559" xmin="-5.075173815233827E+000" rmax="7.992430097846299E+001"
zmesh="6.400000000000000E+001">
    <PP_R type="real" size="559" columns="4">
 9.765625000000001E-005  1.000683593750000E-004  1.025400478515600E-004  1.050727870335000E-004 
 1.076680848732200E-004  1.103274865695900E-004  1.130525754878600E-004  1.158449741024100E-004 
 1.187063449627400E-004  1.216383916833200E-004  1.246428599579000E-004  1.277215385988600E-004 
 1.308762606022500E-004  1.341089042391300E-004  1.374213941738300E-004  1.408157026099300E-004 
 1.442938504643900E-004  1.478579085708600E-004  1.515099989125600E-004  1.552522958857000E-004 
 1.590870275940800E-004  1.630164771756500E-004  1.670429841618900E-004  1.711689458706900E-004 
 1.753968188337000E-004  1.797291202588900E-004  1.841684295292800E-004  1.887173897386600E-004 
 1.933787092652000E-004  1.981551633840500E-004  2.030495959196400E-004  2.080649209388500E-004 
 2.132041244860400E-004  2.184702663608500E-004  2.238664819399600E-004  2.293959840438800E-004 
 2.350620648497600E-004  2.408680978515500E-004  2.468175398684800E-004  2.529139331032300E-004 
 2.591609072508800E-004  2.655621816599800E-004  2.721215675469800E-004  2.788429702653900E-004 
 2.857303916309500E-004  2.927879323042300E-004  3.000197942321500E-004  3.074302831496800E-004 
 3.150238111434800E-004  3.228048992787200E-004  3.307781802909100E-004  3.389484013440900E-004 
 3.473204268572900E-004  3.558992414006700E-004  3.646899526632600E-004  3.736977944940500E-004 
 3.829281300180500E-004  3.923864548294900E-004  4.020784002637800E-004  4.120097367503000E-004 
 4.221863772480300E-004  4.326143807660600E-004  4.432999559709800E-004  4.542494648834600E-004 
 4.654694266660800E-004  4.769665215047400E-004  4.887475945859000E-004  5.008196601721700E-004 
 5.131899057784300E-004  5.258656964511500E-004  5.388545791535000E-004  5.521642872585900E-004 
 5.658027451538800E-004  5.797780729591800E-004  5.940985913612700E-004  6.087728265678900E-004 
 6.238095153841199E-004  6.392176104141100E-004  6.550062853913400E-004  6.711849406405000E-004 
 6.877632086743200E-004  7.047509599285800E-004  7.221583086388100E-004  7.399956188621900E-004 
 7.582735106480900E-004  7.770028663611000E-004  7.961948371602100E-004  8.158608496380700E-004 
 8.360126126241300E-004  8.566621241559500E-004  8.778216786226000E-004  8.995038740845800E-004 
 9.217216197744700E-004  9.444881437829000E-004  9.678170009343300E-004  9.917220808574100E-004 
 1.016217616254600E-003  1.041318191376100E-003  1.067038750703100E-003  1.093394607845400E-003 
 1.120401454659200E-003  1.148075370589300E-003  1.176432832242900E-003  1.205490723199300E-003 
 1.235266344062300E-003  1.265777422760600E-003  1.297042125102800E-003  1.329079065592800E-003 
 1.361907318513000E-003  1.395546429280300E-003  1.430016426083500E-003  1.465337831807700E-003 
 1.501531676253400E-003  1.538619508656800E-003  1.576623410520700E-003  1.615566008760500E-003 
 1.655470489176900E-003  1.696360610259600E-003  1.738260717333000E-003  1.781195757051100E-003 
 1.825191292250300E-003  1.870273517168900E-003  1.916469273042900E-003  1.963806064087100E-003 
 2.012312073870000E-003  2.062016182094600E-003  2.112947981792400E-003  2.165137796942600E-003 
 2.218616700527100E-003  2.273416533030100E-003  2.329569921396000E-003  2.387110298454500E-003 
 2.446071922826300E-003  2.506489899320100E-003  2.568400199833300E-003  2.631839684769200E-003 
 2.696846124983000E-003  2.763458224270100E-003  2.831715642409500E-003  2.901659018777100E-003 
 2.973329996540900E-003  3.046771247455400E-003  3.122026497267600E-003  3.199140551750100E-003 
 3.278159323378300E-003  3.359129858665700E-003  3.442100366174800E-003  3.527120245219300E-003 
 3.614240115276200E-003  3.703511846123500E-003  3.794988588722800E-003  3.888724806864200E-003 
 3.984776309593800E-003  4.083200284440800E-003  4.184055331466400E-003  4.287401498153700E-003 
 4.393300315158100E-003  4.501814832942500E-003  4.613009659316100E-003  4.726950997901300E-003 
 4.843706687549400E-003  4.963346242731900E-003  5.085940894927400E-003  5.211563635032100E-003 
 5.340289256817400E-003  5.472194401460800E-003  5.607357603176800E-003  5.745859335975300E-003 
 5.887782061573900E-003  6.033210278494800E-003  6.182230572373600E-003  6.334931667511200E-003 
 6.491404479698700E-003  6.651742170347300E-003  6.816040201954900E-003  6.984396394943200E-003 
 7.156910985898300E-003  7.333686687249900E-003  7.514828748425000E-003  7.700445018511100E-003 
 7.890646010468299E-003  8.085544966926900E-003  8.285257927610000E-003  8.489903798422000E-003 
 8.699604422243001E-003  8.914484651472401E-003  9.134672422363800E-003  9.360298831196099E-003 
 9.591498212326700E-003  9.828408218171200E-003  1.007116990116000E-002  1.031992779771900E-002 
 1.057483001432200E-002  1.083602831567600E-002  1.110367821507300E-002  1.137793906698600E-002 
 1.165897416194000E-002  1.194695082374000E-002  1.224204050908600E-002  1.254441890966100E-002 
 1.285426605672900E-002  1.317176642833100E-002  1.349710905911000E-002  1.383048765287000E-002 
 1.417210069789600E-002  1.452215158513400E-002  1.488084872928700E-002  1.524840569290100E-002 
 1.562504131351500E-002  1.601097983395900E-002  1.640645103585800E-002  1.681169037644400E-002 
 1.722693912874200E-002  1.765244452522200E-002  1.808845990499500E-002  1.853524486464800E-002 
 1.899306541280500E-002  1.946219412850100E-002  1.994291032347500E-002  2.043550020846500E-002 
 2.094025706361400E-002  2.145748141308500E-002  2.198748120398800E-002  2.253057198972700E-002 
 2.308707711787300E-002  2.365732792268500E-002  2.424166392237500E-002  2.484043302125800E-002 
 2.545399171688300E-002  2.608270531229000E-002  2.672694813350300E-002  2.738710375240100E-002 
 2.806356521508500E-002  2.875673527589800E-002  2.946702663721200E-002  3.019486219515100E-002 
 3.094067529137200E-002  3.170490997106900E-002  3.248802124735400E-002  3.329047537216400E-002 
 3.411275011385600E-002  3.495533504166800E-002  3.581873181719700E-002  3.670345449308200E-002 
 3.761002981906100E-002  3.853899755559200E-002  3.949091079521500E-002  4.046633629185700E-002 
 4.146585479826600E-002  4.249006141178300E-002  4.353956592865400E-002  4.461499320709200E-002 
 4.571698353930700E-002  4.684619303272800E-002  4.800329400063600E-002  4.918897536245200E-002 
 5.040394305390500E-002  5.164892044733600E-002  5.292464878238500E-002  5.423188760731000E-002 
 5.557141523121100E-002  5.694402918742200E-002  5.835054670835100E-002  5.979180521204700E-002 
 6.126866280078500E-002  6.278199877196400E-002  6.433271414163200E-002  6.592173218093000E-002 
 6.754999896579900E-002  6.921848394025400E-002  7.092818049357900E-002  7.268010655177000E-002 
 7.447530518359900E-002  7.631484522163300E-002  7.819982189860800E-002  8.013135749950299E-002 
 8.211060202974101E-002  8.413873389987600E-002  8.621696062720299E-002  8.834651955469500E-002 
 9.052867858769600E-002  9.276473694881200E-002  9.505602595144701E-002  9.740390979244801E-002 
 9.980978636432200E-002  1.022750880875200E-001  1.048012827632800E-001  1.073898744475400E-001 
 1.100424043463900E-001  1.127604517337400E-001  1.155456348915700E-001  1.183996120733900E-001 
 1.213240824916000E-001  1.243207873291500E-001  1.273915107761800E-001  1.305380810923500E-001 
 1.337623716953300E-001  1.370663022762000E-001  1.404518399424200E-001  1.439210003890000E-001 
 1.474758490986100E-001  1.511185025713500E-001  1.548511295848600E-001  1.586759524856000E-001 
 1.625952485120000E-001  1.666113511502500E-001  1.707266515236600E-001  1.749435998162900E-001 
 1.792647067317500E-001  1.836925449880300E-001  1.882297508492300E-001  1.928790256952100E-001 
 1.976431376298800E-001  2.025249231293400E-001  2.075272887306300E-001  2.126532127622800E-001 
 2.179057471175100E-001  2.232880190713100E-001  2.288032331423700E-001  2.344546730009900E-001 
 2.402457034241100E-001  2.461797722986900E-001  2.522604126744600E-001  2.584912448675200E-001 
 2.648759786157500E-001  2.714184152875600E-001  2.781224501451600E-001  2.849920746637500E-001 
 2.920313789079400E-001  2.992445539669700E-001  3.066358944499500E-001  3.142098010428700E-001 
 3.219707831286300E-001  3.299234614719000E-001  3.380725709702600E-001  3.464229634732300E-001 
 3.549796106710100E-001  3.637476070545900E-001  3.727321729488400E-001  3.819386576206700E-001 
 3.913725424639000E-001  4.010394442627600E-001  4.109451185360500E-001  4.210954629638900E-001 
 4.314965208991000E-001  4.421544849653100E-001  4.530757007439500E-001  4.642666705523300E-001 
 4.757340573149700E-001  4.874846885306500E-001  4.995255603373600E-001  5.118638416776899E-001 
 5.245068785671300E-001  5.374621984677400E-001  5.507375147698900E-001  5.643407313847000E-001 
 5.782799474499100E-001  5.925634621519200E-001  6.071997796670699E-001  6.221976142248500E-001 
 6.375658952962000E-001  6.533137729100200E-001  6.694506231009000E-001  6.859860534914900E-001 
 7.029299090127300E-001  7.202922777653400E-001  7.380834970261499E-001  7.563141594026900E-001 
 7.749951191399400E-001  7.941374985826900E-001  8.137526947976900E-001  8.338523863591900E-001 
 8.544485403022600E-001  8.755534192477300E-001  8.971795887031500E-001  9.193399245441100E-001 
 9.420476206803500E-001  9.653161969111600E-001  9.891595069748600E-001  1.013591746797100E+000 
 1.038627462943000E+000  1.064281561277700E+000  1.090569315841300E+000  1.117506377942600E+000 
 1.145108785477700E+000  1.173392972479000E+000  1.202375778899300E+000  1.232074460638100E+000 
 1.262506699815900E+000  1.293690615301300E+000  1.325644773499200E+000  1.358388199404700E+000 
 1.391940387930000E+000  1.426321315511800E+000  1.461551452005000E+000  1.497651772869500E+000 
 1.534643771659400E+000  1.572549472819400E+000  1.611391444798000E+000  1.651192813484500E+000 
 1.691977275977600E+000  1.733769114694200E+000  1.776593211827200E+000  1.820475064159300E+000 
 1.865440798244000E+000  1.911517185960700E+000  1.958731660453900E+000  2.007112332467100E+000 
 2.056688007079100E+000  2.107488200853900E+000  2.159543159415000E+000  2.212883875452500E+000 
 2.267542107176200E+000  2.323550397223500E+000  2.380942092034900E+000  2.439751361708200E+000 
 2.500013220342400E+000  2.561763546884800E+000  2.625039106492900E+000  2.689877572423200E+000 
 2.756317548462100E+000  2.824398591909100E+000  2.894161237129300E+000  2.965647019686300E+000 
 3.038898501072600E+000  3.113959294049100E+000  3.190874088612100E+000  3.269688678600800E+000 
 3.350449988962300E+000  3.433206103689600E+000  3.518006294450800E+000  3.604901049923700E+000 
 3.693942105856800E+000  3.785182475871500E+000  3.878676483025500E+000  3.974479792156200E+000 
 4.072649443022500E+000  4.173243884265100E+000  4.276323008206500E+000  4.381948186509200E+000 
 4.490182306716000E+000  4.601089809691900E+000  4.714736727991200E+000  4.831190725172600E+000 
 4.950521136084400E+000  5.072799008145700E+000  5.198097143646900E+000  5.326490143095000E+000 
 5.458054449629400E+000  5.592868394535200E+000  5.731012243880300E+000  5.872568246304100E+000 
 6.017620681987800E+000  6.166255912832900E+000  6.318562433879900E+000  6.474630925996700E+000 
 6.634554309868800E+000  6.798427801322600E+000  6.966348968015300E+000  7.138417787525200E+000 
 7.314736706877100E+000  7.495410703537000E+000  7.680547347914300E+000  7.870256867407800E+000 
 8.064652212032801E+000  8.263849121670001E+000  8.467966194975300E+000  8.677124959991200E+000 
 8.891449946502901E+000  9.111068760181601E+000  9.336112158558000E+000  9.566714128874400E+000 
 9.803011967857600E+000  1.004514636346400E+001  1.029326147864100E+001  1.054750503716400E+001 
 1.080802841158200E+001  1.107498671334800E+001  1.134853888516700E+001  1.162884779563100E+001 
 1.191608033618300E+001  1.221040752048700E+001  1.251200458624300E+001  1.282105109952300E+001 
 1.313773106168100E+001  1.346223301890500E+001  1.379475017447200E+001  1.413548050378100E+001 
 1.448462687222500E+001  1.484239715596900E+001  1.520900436572100E+001  1.558466677355400E+001 
 1.596960804286100E+001  1.636405736152000E+001  1.676824957834900E+001  1.718242534293400E+001 
 1.760683124890500E+001  1.804171998075300E+001  1.848735046427800E+001  1.894398802074500E+001 
 1.941190452485800E+001  1.989137856662200E+001  2.038269561721700E+001  2.088614819896200E+001 
 2.140203605947700E+001  2.193066635014600E+001  2.247235380899400E+001  2.302742094807700E+001 
 2.359619824549400E+001  2.417902434215800E+001  2.477624624340900E+001  2.538821952562100E+001 
 2.601530854790400E+001  2.665788666903700E+001  2.731633646976300E+001  2.799104998056600E+001 
 2.868242891508600E+001  2.939088490928800E+001  3.011683976654800E+001  3.086072570878100E+001 
 3.162298563378800E+001  3.240407337894300E+001  3.320445399140300E+001  3.402460400499000E+001 
 3.486501172391400E+001  3.572617751349400E+001  3.660861409807800E+001  3.751284686630000E+001 
 3.843941418389800E+001  3.938886771424000E+001  4.036177274678200E+001  4.135870853362700E+001 
 4.238026863440800E+001  4.342706126967800E+001  4.449970968303900E+001  4.559885251221000E+001 
 4.672514416926100E+001  4.787925523024200E+001  4.906187283442900E+001  5.027370109344000E+001 
 5.151546151044800E+001  5.278789340975600E+001  5.409175437697700E+001  5.542782071008800E+001 
 5.679688788162700E+001  5.819977101230300E+001  5.963730535630700E+001  6.111034679860800E+001 
 6.261977236453300E+001  6.416648074193699E+001  6.575139281626301E+001  6.737545221882500E+001 
 6.903962588863000E+001  7.074490464807900E+001  7.249230379288700E+001  7.428286369657100E+001 
 7.611765042987599E+001  7.799775639549399E+001  7.992430097846299E+001
    </PP_R>
    <PP_RAB type="real" size="559" columns="4">
 2.382801447610852E-006  2.441656643366840E-006  2.501965562457940E-006  2.563764111850808E-006 
 2.627089085413342E-006  2.691978185823087E-006  2.758470047012945E-006  2.826604257174161E-006 
 2.896421382326374E-006  2.967962990469844E-006  3.041271676334498E-006  3.116391086739957E-006 
 3.193365946582388E-006  3.272242085463081E-006  3.353066464973861E-006  3.435887206658871E-006 
 3.520753620663217E-006  3.607716235093588E-006  3.696826826100394E-006  3.788138448705068E-006 
 3.881705468388161E-006  3.977583593457256E-006  4.075829908215686E-006  4.176502906948645E-006 
 4.279662528750373E-006  4.385370193210450E-006  4.493688836982636E-006  4.604682951256272E-006 
 4.718418620152183E-006  4.834963560069931E-006  4.954387160003755E-006  5.076760522855723E-006 
 5.202156507770270E-006  5.330649773512312E-006  5.462316822917994E-006  5.597236048444141E-006 
 5.735487778840617E-006  5.877154326978004E-006  6.022320038854279E-006  6.171071343813944E-006 
 6.323496806006154E-006  6.479687177114585E-006  6.639735450389280E-006  6.803736916013886E-006 
 6.971789217839547E-006  7.143992411520074E-006  7.320449024084755E-006  7.501264114979548E-006 
 7.686545338619615E-006  7.876403008483422E-006  8.070950162793100E-006  8.270302631813956E-006 
 8.474579106819783E-006  8.683901210758353E-006  8.898393570663925E-006  9.118183891859507E-006 
 9.343403033988362E-006  9.574185088927732E-006  9.810667460624286E-006  1.005299094690182E-005 
 1.030129982329023E-005  1.055574192892559E-005  1.081646875457001E-005  1.108363553280782E-005 
 1.135740133046813E-005  1.163792914333089E-005  1.192538599317099E-005  1.221994302720227E-005 
 1.252177561997434E-005  1.283106347778754E-005  1.314799074568905E-005  1.347274611710753E-005 
 1.380552294620016E-005  1.414651936297128E-005  1.449593839123663E-005  1.485398806950009E-005 
 1.522088157481682E-005  1.559683734971485E-005  1.598207923225284E-005  1.637683658928934E-005 
 1.678134445304478E-005  1.719584366103509E-005  1.762058099946251E-005  1.805580935014927E-005 
 1.850178784109805E-005  1.895878200077323E-005  1.942706391619210E-005  1.990691239492212E-005 
 2.039861313107668E-005  2.090245887541437E-005  2.141874960963706E-005  2.194779272499514E-005 
 2.248990320530254E-005  2.304540381447353E-005  2.361462528869084E-005  2.419790653332155E-005 
 2.479559482469488E-005  2.540804601686512E-005  2.603562475348194E-005  2.667870468489133E-005 
 2.733766869060860E-005  2.801290910726706E-005  2.870482796221764E-005  2.941383721288442E-005 
 3.014035899204211E-005  3.088482585914461E-005  3.164768105786580E-005  3.242937877999413E-005 
 3.323038443586140E-005  3.405117493142788E-005  3.489223895223357E-005  3.575407725435222E-005 
 3.663720296253594E-005  3.754214187570914E-005  3.846943278004103E-005  3.941962776970655E-005 
 4.039329257561868E-005  4.139100690223722E-005  4.241336477272218E-005  4.346097488260780E-005 
 4.453446096220914E-005  4.563446214797613E-005  4.676163336302939E-005  4.791664570709720E-005 
 4.910018685606124E-005  5.031296147140623E-005  5.155569161975151E-005  5.282911720275761E-005 
 5.413399639766615E-005  5.547110610868804E-005  5.684124242957401E-005  5.824522111758494E-005 
 5.968387807918866E-005  6.115806986774437E-005  6.266867419347751E-005  6.421659044605683E-005 
 6.580274023007445E-005  6.742806791375778E-005  6.909354119122585E-005  7.080015165865121E-005 
 7.254891540462004E-005  7.434087361511269E-005  7.617709319340721E-005  7.805866739528414E-005 
 7.998671647994699E-005  8.196238837700060E-005  8.398685936991393E-005  8.606133479635037E-005 
 8.818704976581980E-005  9.036526989503501E-005  9.259729206144360E-005  9.488444517535995E-005 
 9.722809097119267E-005  9.962962481818194E-005  1.020904765511889E-004  1.046121113220052E-004 
 1.071960304716588E-004  1.098437724243087E-004  1.125569136031872E-004  1.153370693691881E-004 
 1.181858949826056E-004  1.211050865886766E-004  1.240963822274175E-004  1.271615628684345E-004 
 1.303024534712850E-004  1.335209240720260E-004  1.368188908966031E-004  1.401983175017500E-004 
 1.436612159440434E-004  1.472096479778619E-004  1.508457262829146E-004  1.545716157221019E-004 
 1.583895346304372E-004  1.623017561358100E-004  1.663106095123650E-004  1.704184815673208E-004 
 1.746278180620337E-004  1.789411251681638E-004  1.833609709598181E-004  1.878899869425256E-004 
 1.925308696200054E-004  1.972863820996204E-004  2.021593557374812E-004  2.071526918241978E-004 
 2.122693633122549E-004  2.175124165860675E-004  2.228849732757441E-004  2.283902321156529E-004 
 2.340314708489109E-004  2.398120481788798E-004  2.457354057688974E-004  2.518050702913977E-004 
 2.580246555275791E-004  2.643978645191163E-004  2.709284917727337E-004  2.776204255195372E-004 
 2.844776500298563E-004  2.915042479855956E-004  2.987044029108307E-004  3.060824016627422E-004 
 3.136426369837967E-004  3.213896101173158E-004  3.293279334871946E-004  3.374623334443279E-004 
 3.457976530804055E-004  3.543388551114908E-004  3.630910248327492E-004  3.720593731461330E-004 
 3.812492396628266E-004  3.906660958825027E-004  4.003155484508058E-004  4.102033424975482E-004 
 4.203353650572335E-004  4.307176485741490E-004  4.413563744939309E-004  4.522578769439217E-004 
 4.634286465044413E-004  4.748753340730941E-004  4.866047548247002E-004  4.986238922688744E-004 
 5.109399024079134E-004  5.235601179973824E-004  5.364920529119130E-004  5.497434066188494E-004 
 5.633220687623286E-004  5.772361238607712E-004  5.914938561201245E-004  6.061037543662998E-004 
 6.210745170991456E-004  6.364150576714943E-004  6.521345095959665E-004  6.682422319829984E-004 
 6.847478151129710E-004  7.016610861462712E-004  7.189921149740675E-004  7.367512202139236E-004 
 7.549489753532263E-004  7.735962150444538E-004  7.927040415560419E-004  8.122838313824849E-004 
 8.323472420176212E-004  8.529062188954505E-004  8.739730025021632E-004  8.955601356639725E-004 
 9.176804710148695E-004  9.403471786489415E-004  9.635737539615675E-004  9.873740256844228E-004 
 1.011762164118831E-003  1.036752689572562E-003  1.062360481005003E-003  1.088600784885833E-003 
 1.115489224272509E-003  1.143041808112043E-003  1.171274940772401E-003  1.200205431809486E-003 
 1.229850505975191E-003  1.260227813472767E-003  1.291355440465540E-003  1.323251919845041E-003 
 1.355936242265224E-003  1.389427867449178E-003  1.423746735775164E-003  1.458913280148804E-003 
 1.494948438168490E-003  1.531873664591243E-003  1.569710944106658E-003  1.608482804426085E-003 
 1.648212329695410E-003  1.688923174238881E-003  1.730639576642599E-003  1.773386374185661E-003 
 1.817189017628054E-003  1.862073586363445E-003  1.908066803946639E-003  1.955196054004105E-003 
 2.003489396538014E-003  2.052975584632512E-003  2.103684081572937E-003  2.155645078387790E-003 
 2.208889511823970E-003  2.263449082766020E-003  2.319356275110325E-003  2.376644375105556E-003 
 2.435347491170676E-003  2.495500574202573E-003  2.557139438385334E-003  2.620300782513622E-003 
 2.685022211841605E-003  2.751342260473951E-003  2.819300414307819E-003  2.888937134541178E-003 
 2.960293881764279E-003  3.033413140644039E-003  3.108338445217947E-003  3.185114404814790E-003 
 3.263786730613690E-003  3.344402262859735E-003  3.427008998752317E-003  3.511656121021554E-003 
 3.598394027210828E-003  3.687274359683042E-003  3.778350036367155E-003  3.871675282265277E-003 
 3.967305661737367E-003  4.065298111582368E-003  4.165710974938424E-003  4.268604036019296E-003 
 4.374038555708914E-003  4.482077308035065E-003  4.592784617543426E-003  4.706226397596847E-003 
 4.822470189617447E-003  4.941585203301046E-003  5.063642357822468E-003  5.188714324060767E-003 
 5.316875567865109E-003  5.448202394391316E-003  5.582772993532748E-003  5.720667486473091E-003 
 5.861967973388868E-003  6.006758582331683E-003  6.155125519315088E-003  6.307157119642192E-003 
 6.462943900497410E-003  6.622578614839719E-003  6.786156306626194E-003  6.953774367399971E-003 
 7.125532594274638E-003  7.301533249353315E-003  7.481881120612241E-003  7.666683584291516E-003 
 7.856050668823543E-003  8.050095120343310E-003  8.248932469815890E-003  8.452681101820453E-003 
 8.661462325035205E-003  8.875400444463721E-003  9.094622835442014E-003  9.319260019477277E-003 
 9.549445741958354E-003  9.785317051784766E-003  1.002701438296384E-002  1.027468163822304E-002 
 1.052846627468720E-002  1.078851939167203E-002  1.105499582064625E-002  1.132805421741632E-002 
 1.160785715658644E-002  1.189457122835413E-002  1.218836713769455E-002  1.248941980599553E-002 
 1.279790847520365E-002  1.311401681454123E-002  1.343793302986032E-002  1.376984997569771E-002 
 1.410996527009764E-002  1.445848141226899E-002  1.481560590315197E-002  1.518155136895991E-002 
 1.555653568777312E-002  1.594078211926121E-002  1.633451943760703E-002  1.673798206771587E-002 
 1.715141022478845E-002  1.757505005734062E-002  1.800915379375708E-002  1.845397989246274E-002 
 1.890979319580665E-002  1.937686508774292E-002  1.985547365541035E-002  2.034590385469892E-002 
 2.084844767990993E-002  2.136340433760381E-002  2.189108042474265E-002  2.243179011123360E-002 
 2.298585532698108E-002  2.355360595355765E-002  2.413538002061038E-002  2.473152390711851E-002 
 2.534239254762461E-002  2.596834964355114E-002  2.660976787974785E-002  2.726702914637811E-002 
 2.794052476629164E-002  2.863065572801906E-002  2.933783292450281E-002  3.006247739773772E-002 
 3.080502058946279E-002  3.156590459802123E-002  3.234558244159133E-002  3.314451832790034E-002 
 3.396318793059958E-002  3.480207867248365E-002  3.566169001569542E-002  3.654253375908253E-002 
 3.744513434293243E-002  3.837002916120318E-002  3.931776888148394E-002  4.028891777285633E-002 
 4.128405404184669E-002  4.230377017667916E-002  4.334867330004444E-002  4.441938553055476E-002 
 4.551654435315861E-002  4.664080299868342E-002  4.779283083275018E-002  4.897331375431883E-002 
 5.018295460405203E-002  5.142247358277082E-002  5.269260868026546E-002  5.399411611466679E-002 
 5.532777078269963E-002  5.669436672103347E-002  5.809471757904250E-002  5.952965710324578E-002 
 6.100003963369613E-002  6.250674061264704E-002  6.405065710578052E-002  6.563270833629148E-002 
 6.725383623219902E-002  6.891500598713400E-002  7.061720663501732E-002  7.236145163889995E-002 
 7.414877949438196E-002  7.598025434789336E-002  7.785696663028602E-002  7.978003370605362E-002 
 8.175060053859461E-002  8.376984037189623E-002  8.583895542908369E-002  8.795917762818121E-002 
 9.013176931559691E-002  9.235802401769305E-002  9.463926721092944E-002  9.697685711103866E-002 
 9.937218548168235E-002  1.018266784630785E-001  1.043417974211178E-001  1.069190398174194E-001 
 1.095599401009103E-001  1.122660706214031E-001  1.150390425657496E-001  1.178805069171240E-001 
 1.207921554379779E-001  1.237757216772963E-001  1.268329820027256E-001  1.299657566581934E-001 
 1.331759108476496E-001  1.364653558455855E-001  1.398360501349734E-001  1.432900005733062E-001 
 1.468292635874666E-001  1.504559463980770E-001  1.541722082741102E-001  1.579802618184799E-001 
 1.618823742853959E-001  1.658808689302461E-001  1.699781263928240E-001  1.741765861147249E-001 
 1.784787477917592E-001  1.828871728622166E-001  1.874044860319117E-001  1.920333768369004E-001 
 1.967766012447725E-001  2.016369832955181E-001  2.066174167829187E-001  2.117208669774570E-001 
 2.169503723917982E-001  2.223090465898775E-001  2.278000800406454E-001  2.334267420176498E-001 
 2.391923825454857E-001  2.451004343943670E-001  2.511544151238942E-001  2.573579291774682E-001 
 2.637146700281529E-001  2.702284223778464E-001  2.769030644105622E-001  2.837425701015123E-001 
 2.907510115830175E-001  2.979325615691249E-001  3.052914958398816E-001  3.128321957871217E-001 
 3.205591510230583E-001  3.284769620533395E-001  3.365903430160582E-001  3.449041244885436E-001 
 3.534232563634255E-001  3.621528107956031E-001  3.710979852222440E-001  3.802641054572258E-001 
 3.896566288620246E-001  3.992811475949248E-001  4.091433919405061E-001  4.192492337214312E-001 
 4.296046897943635E-001  4.402159256322855E-001  4.510892589954126E-001  4.622311636925831E-001 
 4.736482734358045E-001  4.853473857896690E-001  4.973354662186601E-001  5.096196522342548E-001 
 5.222072576444563E-001  5.351057769082724E-001  5.483228895978920E-001  5.618664649709807E-001 
 5.757445666557516E-001  5.899654574521560E-001  6.045376042512167E-001  6.194696830762170E-001 
 6.347705842482034E-001  6.504494176791284E-001  6.665155182958221E-001  6.829784515977254E-001 
 6.998480193521897E-001  7.171342654301736E-001  7.348474817863131E-001  7.529982145864171E-001 
 7.715972704867043E-001  7.906557230677366E-001  8.101849194275123E-001  8.301964869373559E-001 
 8.507023401647268E-001  8.717146879667790E-001  8.932460407595755E-001  9.153092179663241E-001 
 9.379173556501019E-001  9.610839143346526E-001  9.848226870187251E-001  1.009147807388075E+000 
 1.034073758230571E+000  1.059615380058869E+000  1.085787879946322E+000  1.112606840580994E+000 
 1.140088229543330E+000  1.168248408813057E+000  1.197104144510740E+000  1.226672616880170E+000 
 1.256971430517111E+000  1.288018624850882E+000  1.319832684884699E+000  1.352432552201343E+000 
 1.385837636240712E+000  1.420067825855853E+000  1.455143501154496E+000  1.491085545633017E+000 
 1.527915358610137E+000  1.565654867967809E+000  1.604326543206618E+000  1.643953408823828E+000 
 1.684559058021777E+000  1.726167666754911E+000  1.768804008123769E+000  1.812493467124418E+000 
 1.857262055762384E+000  1.903136428539716E+000  1.950143898324654E+000
    </PP_RAB>
  </PP_MESH>
  <PP_LOCAL type="real" size="559" columns="4">
-1.280129946595700E+001 -1.280129953843940E+001 -1.280129960917300E+001 -1.280129967820020E+001 
-1.280129974556200E+001 -1.280129981129840E+001 -1.280129987544840E+001 -1.280129993805020E+001 
-1.280129999914100E+001 -1.280130005875720E+001 -1.280130011693440E+001 -1.280130017370680E+001 
-1.280130022910840E+001 -1.280130028317220E+001 -1.280130033593000E+001 -1.280130038741340E+001 
-1.280130043765300E+001 -1.280130048667860E+001 -1.280130053451920E+001 -1.280130058120320E+001 