<UPF version="2.0.1">
  <PP_INFO>
    Generated using FHI98PP, converted with fhi2upf.x v.5.0.2
    Origin: Abinit web site
    Date: 08-Sep-2012 (PG)
    Pseudopotential type: SL
    Element: He
    Functional: PBE

    Suggested minimum cutoff for wavefunctions:   0. Ry
    Suggested minimum cutoff for charge density:   0. Ry
    The Pseudo was generated with a Scalar-Relativistic Calculation
    L component and cutoff radius for Local Potential:  2   0.0000

    Valence configuration: 
    nl pn  l   occ       Rcut    Rcut US       E pseu
    1s  1  0  2.00      0.000      0.000     0.000000
    2p  2  1  0.00      0.000      0.000     0.000000
    3d  3  2  0.00      0.000      0.000     0.000000
    4f  4  3  0.00      0.000      0.000     0.000000

    Generation configuration: not available.
    Comment:
    helium, fhi98PP : Trouiller-Martins-type, GGA Perdew/Burke/Ernzerhof (1996), l=
  </PP_INFO>
  <!--                               -->
  <!-- END OF HUMAN READABLE SECTION -->
  <!--                               -->
  <PP_HEADER generated="Generated using FHI98PP, converted with fhi2upf.x v.5.0.2"
             author="unknown"
             date="unknown"
             comment="helium, fhi98PP : Trouiller-Martins-type, GGA Perdew/Burke/Ernzerhof (1996), l="
             element="He"
             pseudo_type="SL"
             relativistic="scalar"
             is_ultrasoft="F"
             is_paw="F"
             is_coulomb="F"
             has_so="F"
             has_wfc="F"
             has_gipaw="F"
             paw_as_gipaw="F"
             core_correction="F"
             functional="PBE"
             z_valence="2.000000000000000E+000"
             total_psenergy="0.000000000000000E+000"
             wfc_cutoff="0.000000000000000E+000"
             rho_cutoff="0.000000000000000E+000"
             l_max="3"
             l_max_rho="0"
             l_local="2"
             mesh_size="415"
             number_of_wfc="4"
             number_of_proj="3"/>
  <PP_MESH dx="2.439988682353512E-002" mesh="415" xmin="-5.075173815233827E+000" rmax="7.619014694511699E+001"
zmesh="2.000000000000000E+000">
    <PP_R type="real" size="415" columns="4">
 3.125000000000000E-003  3.202187500000000E-003  3.281281531250000E-003  3.362329185071900E-003 
 3.445378715943200E-003  3.530479570226900E-003  3.617682415611600E-003  3.707039171277200E-003 
 3.798603038807700E-003  3.892428533866300E-003  3.988571518652700E-003  4.087089235163500E-003 
 4.188040339272000E-003  4.291484935652000E-003  4.397484613562600E-003  4.506102483517600E-003 
 4.617403214860500E-003  4.731453074267600E-003  4.848319965202000E-003  4.968073468342500E-003 
 5.090784883010500E-003  5.216527269620900E-003  5.345375493180500E-003  5.477406267862100E-003 
 5.612698202678300E-003  5.751331848284400E-003  5.893389744937100E-003  6.038956471637000E-003 
 6.188118696486400E-003  6.340965228289600E-003  6.497587069428400E-003  6.658077470043300E-003 
 6.822531983553300E-003  6.991048523547100E-003  7.163727422078700E-003  7.340671489404100E-003 
 7.521986075192400E-003  7.707779131249600E-003  7.898161275791500E-003  8.093245859303501E-003 
 8.293149032028300E-003  8.497989813119399E-003  8.707890161503499E-003  8.922975048492600E-003 
 9.143372532190400E-003  9.369213833735500E-003  9.600633415428699E-003  9.837769060789800E-003 
 1.008076195659100E-002  1.032975677691900E-002  1.058490176930900E-002  1.084634884301100E-002 
 1.111425365943300E-002  1.138877572482100E-002  1.167007848522400E-002  1.195832942380900E-002 
 1.225370016057800E-002  1.255636655454400E-002  1.286650880844100E-002  1.318431157601000E-002 
 1.350996407193700E-002  1.384366018451400E-002  1.418559859107100E-002  1.453598287627100E-002 
 1.489502165331500E-002  1.526292868815200E-002  1.563992302674900E-002  1.602622912551000E-002 
 1.642207698491000E-002  1.682770228643700E-002  1.724334653291200E-002  1.766925719227500E-002 
 1.810568784492400E-002  1.855289833469400E-002  1.901115492356100E-002  1.948073045017300E-002 
 1.996190449229200E-002  2.045496353325100E-002  2.096020113252300E-002  2.147791810049600E-002 
 2.200842267757800E-002  2.255203071771400E-002  2.310906587644200E-002  2.367985980359000E-002 
 2.426475234073900E-002  2.486409172355500E-002  2.547823478912700E-002  2.610754718841800E-002 
 2.675240360397200E-002  2.741318797299000E-002  2.809029371592300E-002  2.878412397070700E-002 
 2.949509183278300E-002  3.022362060105300E-002  3.097014402989900E-002  3.173510658743700E-002 
 3.251896372014700E-002  3.332218212403500E-002  3.414524002249800E-002  3.498862745105400E-002 
 3.585284654909500E-002  3.673841185885800E-002  3.764585063177100E-002  3.857570314237600E-002 
 3.952852300999300E-002  4.050487752834000E-002  4.150534800329000E-002  4.253053009897100E-002 
 4.358103419241500E-002  4.465748573696800E-002  4.576052563467100E-002  4.689081061784800E-002 
 4.804901364010800E-002  4.923582427701900E-002  5.045194913666100E-002  5.169811228033700E-002 
 5.297505565366100E-002  5.428353952830700E-002  5.562434295465600E-002  5.699826422563600E-002 
 5.840612135200900E-002  5.984875254940400E-002  6.132701673737400E-002  6.284179405078701E-002 
 6.439398636384100E-002  6.598451782702799E-002  6.761433541735599E-002  6.928440950216500E-002 
 7.099573441686800E-002  7.274932905696500E-002  7.454623748467200E-002  7.638752955054300E-002 
 7.827430153044200E-002  8.020767677824400E-002  8.218880639466600E-002  8.421886991261400E-002 
 8.629907599945601E-002  8.843066317664200E-002  9.061490055710600E-002  9.285308860086600E-002 
 9.514655988930699E-002  9.749667991857300E-002  9.990484791256200E-002  1.023724976560000E-001 
 1.049010983481100E-001  1.074921554773000E-001  1.101472117175900E-001  1.128678478470200E-001 
 1.156556836888400E-001  1.185123790759500E-001  1.214396348391300E-001  1.244391938196600E-001 
 1.275128419070000E-001  1.306624091021000E-001  1.338897706069300E-001  1.371968479409200E-001 
 1.405856100850600E-001  1.440580746541600E-001  1.476163090981200E-001  1.512624319328400E-001 
 1.549986140015800E-001  1.588270797674200E-001  1.627501086376800E-001  1.667700363210300E-001 
 1.708892562181600E-001  1.751102208467400E-001  1.794354433016600E-001  1.838674987512100E-001 
 1.884090259703600E-001  1.930627289118300E-001  1.978313783159500E-001  2.027178133603600E-001 
 2.077249433503600E-001  2.128557494511100E-001  2.181132864625600E-001  2.235006846381800E-001 
 2.290211515487400E-001  2.346779739920000E-001  2.404745199496000E-001  2.464142405923600E-001 
 2.525006723349900E-001  2.587374389416600E-001  2.651282536835200E-001  2.716769215495000E-001 
 2.783873415117800E-001  2.852635088471200E-001  2.923095175156400E-001  2.995295625982800E-001 
 3.069279427944500E-001  3.145090629814800E-001  3.222774368371200E-001  3.302376895270000E-001 
 3.383945604583100E-001  3.467529061016300E-001  3.553177028823400E-001  3.640940501435400E-001 
 3.730871731820800E-001  3.823024263596800E-001  3.917452962907600E-001  4.014214051091500E-001 
 4.113365138153400E-001  4.214965257065800E-001  4.319074898915300E-001  4.425756048918500E-001 
 4.535072223326800E-001  4.647088507243000E-001  4.761871593371900E-001  4.879489821728200E-001 
 5.000013220324900E-001  5.123513546866900E-001  5.250064331474500E-001  5.379740920461900E-001 
 5.512620521197300E-001  5.648782248070900E-001  5.788307169598300E-001  5.931278356687300E-001 
 6.077780932097500E-001  6.227902121120300E-001  6.381731303512000E-001  6.539360066708700E-001 
 6.700882260356500E-001  6.866394052187300E-001  7.035993985276300E-001  7.209783036712600E-001 
 7.387864677719400E-001  7.570344935259100E-001  7.757332455160000E-001  7.948938566802400E-001 
 8.145277349402400E-001  8.346465699932700E-001  8.552623402721000E-001  8.763873200768200E-001 
 8.980340868827200E-001  9.202155288287200E-001  9.429448523907900E-001  9.662355902448500E-001 
 9.901016093238900E-001  1.014557119074200E+000  1.039616679915300E+000  1.065295211909200E+000 
 1.091608003643400E+000  1.118570721333400E+000  1.146199418150300E+000  1.174510543778600E+000 
 1.203520954210000E+000  1.233247921779000E+000  1.263709145446900E+000  1.294922761339400E+000 
 1.326907353544500E+000  1.359681965177100E+000  1.393266109716900E+000  1.427679782626900E+000 
 1.462943473257800E+000  1.499078177047300E+000  1.536105408020400E+000  1.574047211598500E+000 
 1.612926177725000E+000  1.652765454314800E+000  1.693588761036300E+000  1.735420403433900E+000 
 1.778285287398700E+000  1.822208933997500E+000  1.867217494667200E+000  1.913337766785500E+000 
 1.960597209625100E+000  2.009023960702900E+000  2.058646852532200E+000  2.109495429789800E+000 
 2.161599966905600E+000  2.214991486088100E+000  2.269701775794500E+000  2.325763409656600E+000 
 2.383209765875200E+000  2.442075047092300E+000  2.502394300755500E+000  2.564203439984100E+000 
 2.627539264951700E+000  2.692439484796000E+000  2.758942740070500E+000  2.827088625750200E+000 
 2.896917714806300E+000  2.968471582362000E+000  3.041792830446300E+000  3.116925113358300E+000 
 3.193913163658300E+000  3.272802818800600E+000  3.353641048425000E+000  3.436475982321100E+000 
 3.521356939084500E+000  3.608334455479800E+000  3.697460316530200E+000  3.788787586348500E+000 
 3.882370639731300E+000  3.978265194532700E+000  4.076528344837600E+000  4.177218594955100E+000 
 4.280395894250500E+000  4.386121672838500E+000  4.494458878157600E+000  4.605472012448100E+000 
 4.719227171155500E+000  4.835792082283100E+000  4.955236146715500E+000  5.077630479539400E+000 
 5.203047952384000E+000  5.331563236807900E+000  5.463252848757000E+000  5.598195194121300E+000 
 5.736470615416100E+000  5.878161439616900E+000  6.023352027175400E+000  6.172128822246700E+000 
 6.324580404156100E+000  6.480797540138800E+000  6.640873239380200E+000  6.804902808392900E+000 
 6.972983907760200E+000  7.145216610281900E+000  7.321703460555900E+000  7.502549536031600E+000 
 7.687862509571600E+000  7.877752713558000E+000  8.072333205582900E+000  8.271719835760800E+000 
 8.476031315704100E+000  8.685389289202000E+000  8.899918404645200E+000  9.119746389239999E+000 
 9.345004125054199E+000  9.575825726943000E+000  9.812348622398501E+000  1.005471363337200E+001 
 1.030306506011600E+001  1.055755076710100E+001  1.081832227104800E+001  1.108553483114300E+001 
 1.135934754147200E+001  1.163992342574700E+001  1.192742953436300E+001  1.222203704386200E+001 
 1.252392135884500E+001  1.283326221640800E+001  1.315024379315400E+001  1.347505481484500E+001 
 1.380788866877100E+001  1.414894351889000E+001  1.449842242380600E+001  1.485653345767400E+001 
 1.522348983407900E+001  1.559951003298100E+001  1.598481793079500E+001  1.637964293368600E+001 
 1.678422011414800E+001  1.719879035096800E+001  1.762360047263600E+001  1.805890340431100E+001 
 1.850495831839700E+001  1.896203078886100E+001  1.943039294934600E+001  1.991032365519500E+001 
 2.040210864947800E+001  2.090604073312100E+001  2.142241993922900E+001  2.195155371172800E+001 
 2.249375708840700E+001  2.304935288849100E+001  2.361867190483700E+001  2.420205310088600E+001 
 2.479984381247800E+001  2.541239995464600E+001  2.604008623352600E+001  2.668327636349400E+001 
 2.734235328967200E+001  2.801770941592700E+001  2.870974683850100E+001  2.941887758541200E+001 
 3.014552386177100E+001  3.089011830115700E+001  3.165310422319600E+001  3.243493589750900E+001 
 3.323607881417700E+001  3.405700996088700E+001  3.489821810692100E+001  3.576020409416200E+001 
 3.664348113528800E+001  3.754857511932900E+001  3.847602492477700E+001  3.942638274041900E+001 
 4.040021439410700E+001  4.139809968964200E+001  4.242063275197600E+001  4.346842238095000E+001 
 4.454209241375900E+001  4.564228209637900E+001  4.676964646415900E+001  4.792485673182400E+001 
 4.910860069310000E+001  5.032158313022000E+001  5.156452623353600E+001  5.283817003150500E+001 
 5.414327283128300E+001  5.548061167021500E+001  5.685098277847000E+001  5.825520205309800E+001 
 5.969410554381000E+001  6.116854995074200E+001  6.267941313452500E+001  6.422759463894801E+001 
 6.581401622653000E+001  6.743962242732501E+001  6.910538110128000E+001  7.081228401448099E+001 
 7.256134742963900E+001  7.435361271115100E+001  7.619014694511699E+001
    </PP_R>
    <PP_RAB type="real" size="415" columns="4">
 7.624964632354726E-005  7.813301258773888E-005  8.006289799865602E-005  8.204045157922343E-005 
 8.406685073323084E-005  8.614330194633927E-005  8.827104150441618E-005  9.045133622957511E-005 
 9.268548423444446E-005  9.497481569503646E-005  9.732069364270149E-005  9.972451477567812E-005 
 1.021877102906364E-004  1.047117467348147E-004  1.072981268791645E-004  1.099483906130800E-004 
 1.126641158612234E-004  1.154469195229968E-004  1.182984584352145E-004  1.212204303585646E-004 
 1.242145749884197E-004  1.272826749906346E-004  1.304265570629024E-004  1.336480930223571E-004 
 1.369492009200095E-004  1.403318461827324E-004  1.437980427834477E-004  1.473498544401978E-004 
 1.509893958448698E-004  1.547188339222378E-004  1.585403891201182E-004  1.624563367313856E-004 
 1.664690082486491E-004  1.705807927523915E-004  1.747941383333753E-004  1.791115535502110E-004 
 1.835356089229017E-004  1.880689384632961E-004  1.927142412433404E-004  1.974742830020497E-004 
 2.023518977922004E-004  2.073499896676677E-004  2.124715344124603E-004  2.177195813124472E-004 
 2.230972549708655E-004  2.286077571686458E-004  2.342543687707097E-004  2.400404516793465E-004 
 2.459694508358188E-004  2.520448962714685E-004  2.582704052093763E-004  2.646496842180495E-004 
 2.711865314182263E-004  2.778848387442566E-004  2.847485942612378E-004  2.917818845394896E-004 
 2.989888970876373E-004  3.063739228456952E-004  3.139413587399781E-004  3.216957103008680E-004 
 3.296415943452885E-004  3.377837417256209E-004  3.461270001462317E-004  3.546763370498569E-004 
 3.634368425749910E-004  3.724137325865961E-004  3.816123517814764E-004  3.910381768704863E-004 
 4.006968198391849E-004  4.105940312892059E-004  4.207357038620495E-004  4.311278757474439E-004 
 4.417767342784012E-004  4.526886196150868E-004  4.638700285195809E-004  4.753276182240156E-004 
 4.870682103941422E-004  4.990987951908625E-004  5.114265354320939E-004  5.240587708572588E-004 
 5.370030224974270E-004  5.502669971531091E-004  5.638585919828023E-004  5.777858992047746E-004 
 5.920572109151405E-004  6.066810240247382E-004  6.216660453181540E-004  6.370211966375018E-004 
 6.527556201944498E-004  6.688786840132501E-004  6.853999875083810E-004  7.023293671998552E-004 
 7.196769025696803E-004  7.374529220631577E-004  7.556680092381176E-004  7.743330090662867E-004 
 7.934590343902315E-004  8.130574725396792E-004  8.331399921113929E-004  8.537185499165518E-004 
 8.748053980994897E-004  8.964130914325556E-004  9.185544947909205E-004  9.412427908122626E-004 
 9.644914877453331E-004  9.883144274926469E-004  1.012725793851715E-003  1.037740120959846E-003 
 1.063372301947540E-003  1.089637597805653E-003  1.116551646471450E-003  1.144130472139310E-003 
 1.172390494801131E-003  1.201348540022726E-003  1.231021848961279E-003  1.261428088630634E-003 
 1.292585362419803E-003  1.324512220871586E-003  1.357227672727110E-003  1.390751196243469E-003 
 1.425102750790678E-003  1.460302788735217E-003  1.496372267616970E-003  1.533332662627106E-003 
 1.571205979393984E-003  1.610014767085019E-003  1.649782131832029E-003  1.690531750488287E-003 
 1.732287884725337E-003  1.775075395478061E-003  1.818919757746368E-003  1.863847075762694E-003 
 1.909884098534047E-003  1.957058235767840E-003  2.005397574191290E-003  2.054930894273809E-003 
 2.105687687362382E-003  2.157698173240219E-003  2.210993318119276E-003  2.265604853076809E-003 
 2.321565292947797E-003  2.378907955683610E-003  2.437666982189002E-003  2.497877356649014E-003 
 2.559574927358411E-003  2.622796428063961E-003  2.687579499837158E-003  2.753962713483270E-003 
 2.821985592506273E-003  2.891688636641072E-003  2.963113345966205E-003  3.036302245611655E-003 
 3.111298911078126E-003  3.188147994181685E-003  3.266895249638171E-003  3.347587562304205E-003 
 3.430272975093102E-003  3.515000717577878E-003  3.601821235302106E-003  3.690786219813981E-003 
 3.781948639443358E-003  3.875362770837633E-003  3.971084231277438E-003  4.069170011789973E-003 
 4.169678511081200E-003  4.272669570304696E-003  4.378204508691357E-003  4.486346160056010E-003 
 4.597158910209273E-003  4.710708735291494E-003  4.827063241053140E-003  4.946291703107300E-003 
 5.068465108174028E-003  5.193656196345832E-003  5.321939504395759E-003  5.453391410154207E-003 
 5.588090177984941E-003  5.726116005381318E-003  5.867551070714179E-003  6.012479582160938E-003 
 6.160987827840282E-003  6.313164227187833E-003  6.469099383599397E-003  6.628886138374230E-003 
 6.792619625992253E-003  6.960397330754237E-003  7.132319144823773E-003  7.308487427701011E-003 
 7.489007067165042E-003  7.673985541724192E-003  7.863532984604717E-003  8.057762249324529E-003 
 8.256788976882678E-003  8.460731664611674E-003  8.669711736727575E-003  8.883853616624898E-003 
 9.103284800955401E-003  9.328135935539061E-003  9.558540893146776E-003  9.794636853207703E-003 
 1.003656438348179E-002  1.028446752375381E-002  1.053849387159047E-002  1.079879467021874E-002 
 1.106552489857317E-002  1.133884336356800E-002  1.161891279464812E-002  1.190589994067597E-002 
 1.219997566921069E-002  1.250131506824014E-002  1.281009755042564E-002  1.312650695992110E-002 
 1.345073168183113E-002  1.378296475437243E-002  1.412340398380554E-002  1.447225206220535E-002 
 1.482971668814188E-002  1.519601069033896E-002  1.557135215439041E-002  1.595596455260374E-002 
 1.635007687705328E-002  1.675392377591648E-002  1.716774569318156E-002  1.759178901180308E-002 
 1.802630620039461E-002  1.847155596354444E-002  1.892780339584398E-002  1.939532013972120E-002 
 1.987438454717227E-002  2.036528184548757E-002  2.086830430707103E-002  2.138375142345566E-002 
 2.191193008361507E-002  2.245315475668029E-002  2.300774767917031E-002  2.357603904684600E-002 
 2.415836721130290E-002  2.475507888142232E-002  2.536652932979266E-002  2.599308260423834E-002 
 2.663511174456407E-002  2.729299900465500E-002  2.796713608006913E-002  2.865792434124654E-002 
 2.936577507247700E-002  3.009110971676749E-002  3.083436012677064E-002  3.159596882190095E-002 
 3.237638925180230E-002  3.317608606632306E-002  3.399553539215942E-002  3.483522511634558E-002 
 3.569565517671970E-002  3.657733785958547E-002  3.748079810471800E-002  3.840657381790444E-002 
 3.935521619120709E-002  4.032729003112973E-002  4.132337409489679E-002  4.234406143504082E-002 
 4.338995975248591E-002  4.446169175837358E-002  4.555989554480448E-002  4.668522496476164E-002 
 4.783835002139120E-002  4.901995726692103E-002  5.023075021141248E-002  5.147144974163570E-002 
 5.274279455025390E-002  5.404554157564351E-002  5.538046645256249E-002  5.674836397394019E-002 
 5.815004856409851E-002  5.958635476363132E-002  6.105813772629350E-002  6.256627372813146E-002 
 6.411166068921614E-002  6.569521870823961E-002  6.731789061033408E-002  6.898064250840831E-002 
 7.068446437836771E-002  7.243037064851301E-002  7.421940080353027E-002  7.605262000337690E-002 
 7.793111971746153E-002  7.985601837448136E-002  8.182846202833167E-002  8.384962504043153E-002 
 8.592071077893186E-002  8.804295233516934E-002  9.021761325784922E-002  9.244598830531821E-002 
 9.472940421645937E-002  9.706922050060682E-002  9.946683024697039E-002  1.019236609540708E-001 
 1.044411753796366E-001  1.070208724115139E-001  1.096642879600781E-001  1.123729958726922E-001 
 1.151486088707460E-001  1.179927795098549E-001  1.209072011637485E-001  1.238936090324937E-001 
 1.269537811755957E-001  1.300895395706333E-001  1.333027511980266E-001  1.365953291526179E-001 
 1.399692337826877E-001  1.434264738571206E-001  1.469691077613906E-001  1.505992447230986E-001 
 1.543190460677568E-001  1.581307265056315E-001  1.620365554503199E-001  1.660388583699431E-001 
 1.701400181716805E-001  1.743424766205216E-001  1.786487357930494E-001  1.830613595671370E-001 
 1.875829751484457E-001  1.922162746346119E-001  1.969640166180872E-001  2.018290278285541E-001 
 2.068142048159195E-001  2.119225156748729E-001  2.171570018120401E-001  2.225207797567991E-001 
 2.280170430167913E-001  2.336490639793051E-001  2.394201958595942E-001  2.453338746973324E-001 
 2.513936214023494E-001  2.576030438509908E-001  2.639658390341006E-001  2.704857952582457E-001 
 2.771667944011187E-001  2.840128142228420E-001  2.910279307341474E-001  2.982163206232866E-001 
 3.055822637426722E-001  3.131301456571047E-001  3.208644602548528E-001  3.287898124231500E-001 
 3.369109207899854E-001  3.452326205335068E-001  3.537598662606701E-001  3.624977349573085E-001 
 3.714514290107651E-001  3.806262793073370E-001  3.900277484062128E-001  3.996614337918552E-001 
 4.095330712065129E-001  4.196485380653271E-001  4.300138569555185E-001  4.406351992223415E-001 
 4.515188886431216E-001  4.626714051925968E-001  4.740993889008572E-001  4.858096438067121E-001 
 4.978091420087302E-001  5.101050278163676E-001  5.227046220034297E-001  5.356154261669155E-001 
 5.488451271932218E-001  5.624016018349027E-001  5.762929214002315E-001  5.905273565588056E-001 
 6.051133822658109E-001  6.200596828077715E-001  6.353751569731294E-001  6.510689233503634E-001 
 6.671503257571101E-001  6.836289388033131E-001  7.005145735917697E-001  7.178172835594870E-001 
 7.355473704633898E-001  7.537153905138417E-001  7.723321606595439E-001  7.914087650278362E-001 
 8.109565615240122E-001  8.309871885936511E-001  8.515125721519164E-001  8.725449326840701E-001 
 8.940967925213714E-001  9.161809832966344E-001  9.388106535840752E-001  9.619992767276021E-001 
 9.857606588627654E-001  1.010108947136689E+000  1.035058638130962E+000  1.060624586492801E+000 
 1.086822013779162E+000  1.113666517519511E+000  1.141174080502229E+000  1.169361080290641E+000 
 1.198244298973818E+000  1.227840933158482E+000  1.258168604207486E+000  1.289245368731427E+000 
 1.321089729339089E+000  1.353720645653748E+000  1.387157545601412E+000  1.421420336977762E+000 
 1.456529419301124E+000  1.492505695957860E+000  1.529370586648011E+000  1.567146040138222E+000 
 1.605854547329636E+000  1.645519154648671E+000  1.686163477768495E+000  1.727811715669362E+000 
 1.770488665046403E+000  1.814219735073047E+000  1.859030962529365E+000
    </PP_RAB>
  </PP_MESH>
  <PP_LOCAL type="real" size="415" columns="4">
-9.248084783683000E+000 -9.248083708051400E+000 -9.248082425279600E+000 -9.248080928704599E+000 
-9.248079211241000E+000 -9.248077265361800E+000 -9.248075083079200E+000 -9.248072655922600E+000 
-9.248069974917000E+000 -9.248067030560000E+000 -9.248063812796600E+000 -9.248060310993800E+000 
-9.248056513913600E+000 -9.248052409684400E+000 -9.248047985770800E+000 -9.248043228942599E+000 
-9.248038125241200E+000 -9.248032659944800E+000 -9.248026817532001E+000 -9.248020581643599E+000 
-9.248013935041200E+000 -9.248006859565800E+000 -9.247999336092400E+000 -9.247991344483401E+000 
-9.247982863539001E+000 -9.247973870945801E+000 -9.247964343222201E+000 -9.247954255661000E+000 
-9.247943582269199E+000 -9.247932295705800E+000 -9.247920367214199E+000 -9.247907766553199E+000 
-9.247894461924000E+000 -9.247880419893001E+000 -9.247865605311000E+000 -9.247849981228599E+000 
-9.247833508807000E+000 -9.247816147224400E+000 -9.247797853578000E+000 -9.247778582780199E+000 
-9.247758287450599E+000 -9.247736917801999E+000 -9.247714421520600E+000 -9.247690743640799E+000 
-9.247665826412801E+000 -9.247639609164599E+000 -9.247612028155400E+000 -9.247583016424199E+000 
-9.247552503627601E+000 -9.247520415872801E+000 -9.247486675539401E+000 -9.247451201094000E+000 
-9.247413906894000E+000 -9.247374702983800E+000 -9.247333494877999E+000 -9.247290183336400E+000 
-9.247244664125200E+000 -9.247196827767400E+000 -9.247146559281800E+000 -9.247093737906599E+000 
-9.247038236810200E+000 -9.246979922787800E+000 -9.246918655942601E+000 -9.246854289350200E+000 
-9.246786668706800E+000 -9.246715631959400E+000 -9.246641008918200E+000 -9.246562620847801E+000 
-9.246480280039400E+000 -9.246393789361200E+000 -9.246302941784800E+000 -9.246207519889200E+000 
-9.246107295339600E+000 -9.246002028339600E+000 -9.245891467054600E+000 -9.245775347009200E+000 
-9.245653390450400E+000 -9.245525305681600E+000 -9.245390786361000E+000 -9.245249510766000E+000 
-9.245101141019200E+000 -9.244945322275600E+000 -9.244781681869400E+000 -9.244609828416200E+000 
-9.244429350870799E+000 -9.244239817536400E+000 -9.244040775024200E+000 -9.243831747160399E+000 
-9.243612233835600E+000 -9.243381709798999E+000 -9.243139623388201E+000 -9.242885395196000E+000 
-9.242618416669201E+000 -9.242338048635199E+000 -9.242043619753799E+000 -9.241734424890000E+000 
-9.241409723404001E+000 -9.241068737352800E+000 -9.240710649601001E+000 -9.240334601833000E+000 
-9.239939692466001E+000 -9.239524974452401E+000 -9.239089452973399E+000 -9.238632083010399E+000 
-9.238151766793200E+000 -9.237647351117401E+000 -9.237117624522799E+000 -9.236561314325000E+000 
-9.235977083497399E+000 -9.235363527387600E+000 -9.234719170268800E+000 -9.234042461708601E+000 
-9.233331772753001E+000 -9.232585391911201E+000 -9.231801520933001E+000 -9.230978270367000E+000 
-9.230113654888999E+000 -9.229205588386600E+000 -9.228251878791800E+000 -9.227250222641800E+000 
-9.226198199359800E+000 -9.225093265239600E+000 -9.223932747116001E+000 -9.222713835708600E+000 
-9.221433578620600E+000 -9.220088872974801E+000 -9.218676457669000E+000 -9.217192905230400E+000 
-9.215634613251799E+000 -9.213997795384000E+000 -9.212278471868000E+000 -9.210472459579799E+000 
-9.208575361565799E+000 -9.206582556046399E+000 -9.204489184856801E+000 -9.202290141305401E+000 
-9.199980057416800E+000 -9.197553290533000E+000 -9.195003909244599E+000 -9.192325678619399E+000 
-9.189512044697400E+000 -9.186556118221000E+000 -9.183450657564199E+000 -9.180188050828200E+000 
-9.176760297064400E+000 -9.173158986589399E+000 -9.169375280349000E+000 -9.165399888293599E+000 
-9.161223046716801E+000 -9.156834494512800E+000 -9.152223448301200E+000 -9.147378576364799E+000 
-9.142287971341201E+000 -9.136939121603801E+000 -9.131318881256201E+000 -9.125413438661800E+000 
-9.119208283413800E+000 -9.112688171641601E+000 -9.105837089530000E+000 -9.098638214913001E+000 
-9.091073876780600E+000 -9.083125512507999E+000 -9.074773622591000E+000 -9.065997722631600E+000 
-9.056776292280400E+000 -9.047086720794001E+000 -9.036905248813801E+000 -9.026206905916800E+000 
-9.014965443420399E+000 -9.003153261858600E+000 -8.990741332469200E+000 -8.977699111959000E+000 
-8.963994449730601E+000 -8.949593486680399E+000 -8.934460544604400E+000 -8.918558005183201E+000 
-8.901846177469199E+000 -8.884283152768999E+000 -8.865824645812800E+000 -8.846423821138799E+000 
-8.826031103699600E+000 -8.804593972839600E+000 -8.782056738999600E+000 -8.758360302794999E+000 
-8.733441896501001E+000 -8.707234808472400E+000 -8.679668091652600E+000 -8.650666258077599E+000 
-8.620148962202199E+000 -8.588030676955800E+000 -8.554220367708000E+000 -8.518621170791400E+000 
-8.481130084924400E+000 -8.441637685810599E+000 -8.400027876387600E+000 -8.356177687685401E+000 
-8.309957148071200E+000 -8.261229241815000E+000 -8.209849981466800E+000 -8.155668622504599E+000 
-8.098528053106000E+000 -8.038265396726400E+000 -7.974712870348200E+000 -7.907698946717800E+000 
-7.837049874353800E+000 -7.762591614261200E+000 -7.684152256565000E+000 -7.601564982912000E+000 
-7.514671640443800E+000 -7.423326989064000E+000 -7.327403673986200E+000 -7.226797958272800E+000 
-7.121436223268800E+000 -7.011282206555600E+000 -6.896344895706800E+000 -6.776686930773400E+000 
-6.652433289133200E+000 -6.523779934572400E+000 -6.391002011295400E+000 -6.254461057968000E+000 
-6.114610613717000E+000 -5.971999495980200E+000 -5.827271959653200E+000 -5.681163909838000E+000 
-5.534494348922200E+000 -5.388151303981400E+000 -5.243071610323000E+000 -5.100214122076400E+000 
-4.960526171789000E+000 -4.824903389823000E+000 -4.694143306104200E+000 -4.568893513212600E+000 
-4.449595695258800E+000 -4.336427854774400E+000 -4.229249285877400E+000 -4.127557432568800E+000 
-4.030474480952400E+000 -3.936796441019200E+000 -3.845160226924400E+000 -3.754414798952800E+000 
-3.664318465345000E+000 -3.575992043875200E+000 -3.489794128891600E+000 -3.405673981547400E+000 
-3.323581518051400E+000 -3.243467861863400E+000 -3.165285314593000E+000 -3.088987327601200E+000 
-3.014528474286400E+000 -2.941864423037400E+000 -2.870951910839600E+000 -2.801748717517000E+000 
-2.734213640594200E+000 -2.668306470766400E+000 -2.603987967957800E+000 -2.541219837960200E+000 
-2.479964709632200E+000 -2.420186112649800E+000 -2.361848455791800E+000 -2.304917005749800E+000 
-2.249357866448400E+000 -2.195137958864600E+000 -2.142225001331600E+000 -2.090587490320800E+000 
-2.040194681683200E+000 -1.991016572346160E+000 -1.943023882449660E+000 -1.896188037913200E+000 
-1.850481153423620E+000 -1.805876015832560E+000 -1.762346067954100E+000 -1.719865392753100E+000 
-1.678408697914620E+000 -1.637951300785220E+000 -1.598469113677400E+000 -1.559938629528060E+000 
-1.522336907902880E+000 -1.485641561337820E+000 -1.449830742010180E+000 -1.414883128730540E+000 
-1.380777914248600E+000 -1.347494792864820E+000 -1.315013948340800E+000 -1.283316042100900E+000 
-1.252382201718460E+000 -1.222194009679360E+000 -1.192733492416680E+000 -1.163983109609320E+000 
-1.135925743738960E+000 -1.108544689898460E+000 -1.081823645846060E+000 -1.055746702299280E+000 
-1.030298333462740E+000 -1.005463387784460E+000 -9.812270789347800E-001 -9.575749770028200E-001 
-9.344929999051600E-001 -9.119674050016200E-001 -8.899847809130600E-001 -8.685320395365200E-001 
-8.475964082526800E-001 -8.271654223213400E-001 -8.072269174600800E-001 -7.877690226018200E-001 
-7.687801528270000E-001 -7.502490024661000E-001 -7.321645383684000E-001 -7.145159933330600E-001 