<UPF version="2.0.1">
  <PP_INFO>
    Generated using FHI98PP, converted with fhi2upf.x v.5.0.1
    Author: Abinit web site
    Generation date: 10-Jul-2012, PG
    Pseudopotential type: SL
    Element: Hf
    Functional: SLA-PW

    Suggested minimum cutoff for wavefunctions:   0. Ry
    Suggested minimum cutoff for charge density:   0. Ry
    The Pseudo was generated with a Non-Relativistic Calculation
    L component and cutoff radius for Local Potential:  1   0.0000

    Valence configuration: 
    nl pn  l   occ       Rcut    Rcut US       E pseu
    6s  6  0  2.00      0.000      0.000     0.000000
    6p  6  1  0.00      0.000      0.000     0.000000
    5d  5  2  2.00      0.000      0.000     0.000000
    5f  5  3  0.00      0.000      0.000     0.000000

    Generation configuration: not available.
    Comment:
    hafnium, fhi98PP : Trouiller-Martins-type, LDA Ceperley/Alder Perdew/Wang (1992)
  </PP_INFO>
  <!--                               -->
  <!-- END OF HUMAN READABLE SECTION -->
  <!--                               -->
  <PP_HEADER generated="Generated using FHI98PP, converted with fhi2upf.x v.5.0.1"
             author="Abinit web site"
             date="10-Jul-2012, PG"
             comment="hafnium, fhi98PP : Trouiller-Martins-type, LDA Ceperley/Alder Perdew/Wang (1992)"
             element="Hf"
             pseudo_type="SL"
             relativistic="no"
             is_ultrasoft="F"
             is_paw="F"
             is_coulomb="F"
             has_so="F"
             has_wfc="F"
             has_gipaw="F"
             paw_as_gipaw="F"
             core_correction="F"
             functional="SLA-PW"
             z_valence="4.000000000000000E+000"
             total_psenergy="0.000000000000000E+000"
             wfc_cutoff="0.000000000000000E+000"
             rho_cutoff="0.000000000000000E+000"
             l_max="3"
             l_max_rho="0"
             l_local="1"
             mesh_size="563"
             number_of_wfc="4"
             number_of_proj="3"/>
  <PP_MESH dx="2.439988682353512E-002" mesh="563" xmin="-5.075173815233822E+000" rmax="7.832732031369400E+001"
zmesh="7.200000000000000E+001">
    <PP_R type="real" size="563" columns="4">
 8.680555555555601E-005  8.894965277777800E-005  9.114670920138901E-005  9.339803291866300E-005 
 9.570496433175399E-005  9.806887695074800E-005  1.004911782114300E-004  1.029733103132500E-004 
 1.055167510779900E-004  1.081230148296200E-004  1.107936532959100E-004  1.135302565323200E-004 
 1.163344538686700E-004  1.192079148792200E-004  1.221523503767400E-004  1.251695134310500E-004 
 1.282612004127900E-004  1.314292520629900E-004  1.346755545889400E-004  1.380020407872900E-004 
 1.414106911947400E-004  1.449035352672500E-004  1.484826525883500E-004  1.521501741072800E-004 
 1.559082834077300E-004  1.597592180079000E-004  1.637052706927000E-004  1.677487908788100E-004 
 1.718921860135100E-004  1.761379230080500E-004  1.804885297063400E-004  1.849465963900900E-004 
 1.895147773209300E-004  1.941957923207500E-004  1.989924283910800E-004  2.039075413723400E-004 
 2.089440576442300E-004  2.141049758680400E-004  2.193933687719900E-004  2.248123849806500E-004 
 2.303652508896800E-004  2.360552725866500E-004  2.418858378195400E-004  2.478604180136800E-004 
 2.539825703386200E-004  2.602559398259800E-004  2.666842615396900E-004  2.732713627997200E-004 
 2.800211654608700E-004  2.869376882477500E-004  2.940250491474700E-004  3.012874678614200E-004 
 3.087292683175900E-004  3.163548812450400E-004  3.241688468117900E-004  3.321758173280400E-004 
 3.403805600160400E-004  3.487879598484400E-004  3.574030224567000E-004  3.662308771113800E-004 
 3.752767797760300E-004  3.845461162364900E-004  3.940444053075400E-004  4.037773021186300E-004 
 4.137506014809600E-004  4.239702413375400E-004  4.344423062985800E-004  4.451730312641500E-004 
 4.561688051363800E-004  4.674361746232500E-004  4.789818481364400E-004  4.908126997854100E-004 
 5.029357734701100E-004  5.153582870748200E-004  5.280876367655700E-004  5.411314013936800E-004 
 5.544973470081000E-004  5.681934314792100E-004  5.822278092367399E-004  5.966088361248900E-004 
 6.113450743771700E-004  6.264452977142900E-004  6.419184965678300E-004  6.577738834330599E-004 
 6.740208983538500E-004  6.906692145431899E-004  7.077287441424100E-004  7.252096441227300E-004 
 7.431223223325600E-004  7.614774436941700E-004  7.802859365534200E-004  7.995589991862900E-004 
 8.193081064661900E-004  8.395450166959100E-004  8.602817786083000E-004  8.815307385399200E-004 
 9.033045477818600E-004  9.256161701120700E-004  9.484788895138400E-004  9.719063180848300E-004 
 9.959124041415200E-004  1.020511440523800E-003  1.045718073104800E-003  1.071547309510400E-003 
 1.098014528055400E-003  1.125135486898300E-003  1.152926333424700E-003  1.181403613860300E-003 
 1.210584283122600E-003  1.240485714915800E-003  1.271125712074200E-003  1.302522517162400E-003 
 1.334694823336300E-003  1.367661785472700E-003  1.401443031573900E-003  1.436058674453800E-003 
 1.471529323712800E-003  1.507876098008500E-003  1.545120637629300E-003  1.583285117378800E-003 
 1.622392259778000E-003  1.662465348594500E-003  1.703528242704800E-003  1.745605390299600E-003 
 1.788721843440000E-003  1.832903272973000E-003  1.878175983815400E-003  1.924566930615700E-003 
 1.972103733801900E-003  2.020814696026800E-003  2.070728819018700E-003  2.121875820848400E-003 
 2.174286153623400E-003  2.227991021617900E-003  2.283022399851800E-003  2.339413053128200E-003 
 2.397196555540400E-003  2.456407310462300E-003  2.517080571030700E-003  2.579252461135200E-003 
 2.642959996925200E-003  2.708241108849300E-003  2.775134664237800E-003  2.843680490444500E-003 
 2.913919398558500E-003  2.985893207702900E-003  3.059644769933100E-003  3.135217995750500E-003 
 3.212657880245500E-003  3.292010529887600E-003  3.373323189975800E-003  3.456644272768200E-003 
 3.542023386305600E-003  3.629511363947300E-003  3.719160294636800E-003  3.811023553914400E-003 
 3.905155835696100E-003  4.001613184837700E-003  4.100453030503200E-003  4.201734220356700E-003 
 4.305517055599500E-003  4.411863326872800E-003  4.520836351046500E-003  4.632501008917400E-003 
 4.746923783837600E-003  4.864172801298400E-003  4.984317869490500E-003  5.107430520866900E-003 
 5.233584054732300E-003  5.362853580884200E-003  5.495316064332100E-003  5.631050371121100E-003 
 5.770137315287800E-003  5.912659706975400E-003  6.058702401737700E-003  6.208352351060600E-003 
 6.361698654131800E-003  6.518832610888800E-003  6.679847776377800E-003  6.844840016454300E-003 
 7.013907564860700E-003  7.187151081712800E-003  7.364673713431100E-003  7.546581154152800E-003 
 7.732981708660400E-003  7.923986356864299E-003  8.119708819878901E-003  8.320265627729900E-003 
 8.525776188734799E-003  8.736362860596600E-003  8.952151023253301E-003  9.173269153527700E-003 
 9.399848901619800E-003  9.632025169489800E-003  9.869936191176199E-003  1.011372361509800E-002 
 1.036353258839100E-002  1.061951184332400E-002  1.088181378585500E-002  1.115059458636500E-002 
 1.142601427264800E-002  1.170823682518300E-002  1.199743027476500E-002  1.229376680255100E-002 
 1.259742284257500E-002  1.290857918678600E-002  1.322742109270000E-002  1.355413839368900E-002 
 1.388892561201400E-002  1.423198207463000E-002  1.458351203187400E-002  1.494372477906100E-002 
 1.531283478110400E-002  1.569106180019700E-002  1.607863102666200E-002  1.647577321302000E-002 
 1.688272481138200E-002  1.729972811422300E-002  1.772703139864400E-002  1.816488907419100E-002 
 1.861356183432300E-002  1.907331681163100E-002  1.954442773687900E-002  2.002717510197900E-002 
 2.052184632699800E-002  2.102873593127500E-002  2.154814570877800E-002  2.208038490778400E-002 
 2.262577041500700E-002  2.318462694425700E-002  2.375728722978100E-002  2.434409222435600E-002 
 2.494539130229800E-002  2.556154246746500E-002  2.619291256641100E-002  2.683987750680100E-002 
 2.750282248121900E-002  2.818214219650500E-002  2.887824110875900E-002  2.959153366414500E-002 
 3.032244454565000E-002  3.107140892592700E-002  3.183887272639800E-002  3.262529288274000E-002 
 3.343113761694300E-002  3.425688671608200E-002  3.510303181796900E-002  3.597007670387300E-002 
 3.685853759845900E-002  3.776894347714100E-002  3.870183638102600E-002  3.965777173963700E-002 
 4.063731870160600E-002  4.164106047353600E-002  4.266959466723200E-002  4.372353365551300E-002 
 4.480350493680400E-002  4.591015150874300E-002  4.704413225100900E-002  4.820612231760900E-002 
 4.939681353885400E-002  5.061691483326400E-002  5.186715262964500E-002  5.314827129959800E-002 
 5.446103360069800E-002  5.580622113063500E-002  5.718463479256100E-002  5.859709527193800E-002 
 6.004444352515500E-002  6.152754128022600E-002  6.304727154984700E-002  6.460453915712901E-002 
 6.620027127431000E-002  6.783541797478500E-002  6.951095279876200E-002  7.122787333289200E-002 
 7.298720180421400E-002  7.478998568877800E-002  7.663729833529100E-002  7.853023960417300E-002 
 8.046993652239599E-002  8.245754395449900E-002  8.449424529017500E-002  8.658125314884300E-002 
 8.871981010161900E-002  9.091118941112900E-002  9.315669578958399E-002  9.545766617558700E-002 
 9.781547053012400E-002  1.002315126522200E-001  1.027072310147300E-001  1.052440996207900E-001 
 1.078436288814200E-001  1.105073665148000E-001  1.132368984677100E-001  1.160338498598600E-001 
 1.188998859514000E-001  1.218367131344000E-001  1.248460799488200E-001  1.279297781235600E-001 
 1.310896436432100E-001  1.343275578412000E-001  1.376454485198700E-001  1.410452910983200E-001 
 1.445291097884400E-001  1.480989788002200E-001  1.517570235765800E-001  1.555054220589300E-001 
 1.593464059837800E-001  1.632822622115800E-001  1.673153340882100E-001  1.714480228401800E-001 
 1.756827890043400E-001  1.800221538927400E-001  1.844687010939000E-001  1.890250780109100E-001 
 1.936939974377800E-001  1.984782391745000E-001  2.033806516821100E-001  2.084041537786600E-001 
 2.135517363769900E-001  2.188264642655000E-001  2.242314779328600E-001  2.297699954378000E-001 
 2.354453143251100E-001  2.412608135889400E-001  2.472199556845900E-001  2.533262885900000E-001 
 2.595834479181700E-001  2.659951590817500E-001  2.725652395110700E-001  2.792976009269900E-001 
 2.861962516698900E-001  2.932652990861400E-001  3.005089519735600E-001  3.079315230873100E-001 
 3.155374317075700E-001  3.233312062707400E-001  3.313174870656300E-001  3.395010289961500E-001 
 3.478867044123600E-001  3.564795060113400E-001  3.652845498098200E-001  3.743070781901300E-001 
 3.835524630214200E-001  3.930262088580500E-001  4.027339562168500E-001  4.126814849354000E-001 
 4.228747176133100E-001  4.333197231383500E-001  4.440227202998700E-001  4.549900814912800E-001 
 4.662283365041100E-001  4.777441764157600E-001  4.895444575732300E-001  5.016362056752900E-001 
 5.140266199554701E-001  5.267230774683700E-001  5.397331374818400E-001  5.530645459776400E-001 
 5.667252402632900E-001  5.807233536977900E-001  5.950672205341300E-001  6.097653808813200E-001 
 6.248265857890900E-001  6.402598024580800E-001  6.560742195788000E-001  6.722792528023900E-001 
 6.888845503466100E-001  7.058999987401700E-001  7.233357287090501E-001  7.412021212081700E-001 
 7.595098136020100E-001  7.782697059979800E-001  7.974929677361300E-001  8.171910440392099E-001 
 8.373756628269799E-001  8.580588416988100E-001  8.792528950887700E-001  9.009704415974600E-001 
 9.232244115049200E-001  9.460280544690900E-001  9.693949474144800E-001  9.933390026156100E-001 
 1.017874475980200E+000  1.043015975536900E+000  1.068778470132700E+000  1.095177298345000E+000 
 1.122228177614100E+000  1.149947213601200E+000  1.178350909777100E+000  1.207456177248600E+000 
 1.237280344826600E+000  1.267841169343900E+000  1.299156846226700E+000  1.331246020328500E+000 
 1.364127797030600E+000  1.397821753617200E+000  1.432347950931600E+000  1.467726945319600E+000 
 1.503979800869000E+000  1.541128101950400E+000  1.579193966068600E+000  1.618200057030500E+000 
 1.658169598439200E+000  1.699126387520600E+000  1.741094809292400E+000  1.784099851081900E+000 
 1.828167117403600E+000  1.873322845203500E+000  1.919593919480000E+000  1.967007889291200E+000 
 2.015592984156600E+000  2.065378130865300E+000  2.116392970697700E+000  2.168667877073900E+000 
 2.222233973637600E+000  2.277123152786500E+000  2.333368094660300E+000  2.391002286598400E+000 
 2.450060043077400E+000  2.510576526141400E+000  2.572587766337100E+000  2.636130684165600E+000 
 2.701243112064500E+000  2.767963816932500E+000  2.836332523210800E+000  2.906389936534100E+000 
 2.978177767966500E+000  3.051738758835200E+000  3.127116706178500E+000  3.204356488821100E+000 
 3.283504094094900E+000  3.364606645219100E+000  3.447712429356000E+000  3.532870926361100E+000 
 3.620132838242200E+000  3.709550119346800E+000  3.801176007294700E+000  3.895065054674800E+000 
 3.991273161525300E+000  4.089857608615000E+000  4.190877091547800E+000  4.294391755709000E+000 
 4.400463232075000E+000  4.509154673907300E+000  4.620530794352800E+000  4.734657904973300E+000 
 4.851603955226100E+000  4.971438572920200E+000  5.094233105671300E+000  5.220060663381400E+000 
 5.348996161766900E+000  5.481116366962600E+000  5.616499941226600E+000  5.755227489774900E+000 
 5.897381608772300E+000  6.043046934509000E+000  6.192310193791400E+000  6.345260255578000E+000 
 6.501988183890800E+000  6.662587292032900E+000  6.827153198146100E+000  6.995783882140300E+000 
 7.168579744029200E+000  7.345643663706700E+000  7.527081062200200E+000  7.712999964436600E+000 
 7.903511063558200E+000  8.098727786828000E+000  8.298766363162700E+000  8.503745892332800E+000 
 8.713788415873401E+000  8.929018989745501E+000  9.149565758792200E+000  9.375560033034400E+000 
 9.607136365850300E+000  9.844432634086800E+000  1.008759012014900E+001  1.033675359611600E+001 
 1.059207140994100E+001  1.085369557376600E+001  1.112178185443800E+001  1.139648986624300E+001 
 1.167798316593900E+001  1.196642935013800E+001  1.226200015508600E+001  1.256487155891700E+001 
 1.287522388642200E+001  1.319324191641600E+001  1.351911499175200E+001  1.385303713204800E+001 
 1.419520714921000E+001  1.454582876579500E+001  1.490511073631000E+001  1.527326697149700E+001 
 1.565051666569300E+001  1.603708442733600E+001  1.643320041269100E+001  1.683910046288500E+001 
 1.725502624431800E+001  1.768122539255200E+001  1.811795165974900E+001  1.856546506574400E+001 
 1.902403205286800E+001  1.949392564457400E+001  1.997542560799500E+001  2.046881862051300E+001 
 2.097439844043900E+001  2.149246608191800E+001  2.202332999414100E+001  2.256730624499700E+001 
 2.312471870924800E+001  2.369589926136700E+001  2.428118797312200E+001  2.488093331605800E+001 
 2.549549236896500E+001  2.612523103047800E+001  2.677052423693100E+001  2.743175618558300E+001 
 2.810932056336700E+001  2.880362078128300E+001  2.951507021458000E+001  3.024409244888000E+001 
 3.099112153236800E+001  3.175660223421700E+001  3.254099030940200E+001  3.334475277004500E+001 
 3.416836816346500E+001  3.501232685710200E+001  3.587713133047300E+001  3.676329647433500E+001 
 3.767134989725100E+001  3.860183223971400E+001  3.955529749603400E+001  4.053231334418700E+001 
 4.153346148378800E+001  4.255933798243800E+001  4.361055363060400E+001  4.468773430528000E+001 
 4.579152134262000E+001  4.692257191978300E+001  4.808155944620100E+001  4.926917396452300E+001 
 5.048612256144600E+001  5.173312978871400E+001  5.301093809449500E+001  5.432030826542900E+001 
 5.566201987958500E+001  5.703687177061100E+001  5.844568250334500E+001  5.988929086117800E+001 
 6.136855634544900E+001  6.288435968718100E+001  6.443760337145500E+001  6.602921217473001E+001 
 6.766013371544599E+001  6.933133901821699E+001  7.104382309196700E+001  7.279860552233900E+001 
 7.459673107874001E+001  7.643927033638499E+001  7.832732031369400E+001
    </PP_R>
    <PP_RAB type="real" size="563" columns="4">
 2.118045731209657E-006  2.170361460770530E-006  2.223969388851559E-006  2.278901432756185E-006 
 2.335190298145263E-006  2.392869498509443E-006  2.451973375122590E-006  2.512537117488062E-006 
 2.574596784290083E-006  2.638189324862137E-006  2.703352601186193E-006  2.770125410435517E-006 
 2.838547508073315E-006  2.908659631522577E-006  2.980503524421264E-006  3.054121961474579E-006 
 3.129558773922832E-006  3.206858875638826E-006  3.286068289866962E-006  3.367234176626754E-006 
 3.450404860789530E-006  3.535629860851030E-006  3.622959918414024E-006  3.712447028398796E-006 
 3.804144470000251E-006  3.898106838409234E-006  3.994390077318061E-006  4.093051512227825E-006 
 4.194149884579691E-006  4.297745386728963E-006  4.403899697780953E-006  4.512676020316225E-006 
 4.624139118018153E-006  4.738355354233030E-006  4.855392731482769E-006  4.975320931950401E-006 
 5.098211358969410E-006  5.224137179535894E-006  5.353173367870660E-006  5.485396750056867E-006 
 5.620886049783465E-006  5.759721935212992E-006  5.901987067012747E-006  6.047766147567898E-006 
 6.197145971412876E-006  6.350215476906678E-006  6.507065799186477E-006  6.667790324426374E-006 
 6.832484745439629E-006  7.001247118651904E-006  7.174177922482620E-006  7.351380117168123E-006 
 7.532959206062003E-006  7.719023298451871E-006  7.909683173923571E-006  8.105052348319452E-006 
 8.305247141322880E-006  8.510386745713649E-006  8.720593298332863E-006  8.935991952801671E-006 
 9.156710954035845E-006  9.382881714600338E-006  9.614638892951178E-006  9.852120473606920E-006 
 1.009546784930501E-005  1.034482590518285E-005  1.060034310504093E-005  1.086217157973532E-005 
 1.113046721775492E-005  1.140538975803350E-005  1.168710288505682E-005  1.197577432631773E-005 
 1.227157595217778E-005  1.257468387819653E-005  1.288527856998803E-005  1.320354495066675E-005 
 1.352967251094812E-005  1.386385542196878E-005  1.420629265089125E-005  1.455718807936833E-005 
 1.491675062492861E-005  1.528519436536444E-005  1.566273866618887E-005  1.604960831124385E-005 
 1.644603363653141E-005  1.685225066735373E-005  1.726850125883745E-005  1.769503323993079E-005 
 1.813210056095705E-005  1.857996344481259E-005  1.903888854189956E-005  1.950914908888449E-005 
 1.999102507137990E-005  2.048480339064311E-005  2.099077803439202E-005  2.150925025184138E-005 
 2.204052873306196E-005  2.258492979276854E-005  2.314277755864997E-005  2.371440416434858E-005 
 2.430014994720786E-005  2.490036365090351E-005  2.551540263308234E-005  2.614563307811732E-005 
 2.679143021514909E-005  2.745317854146161E-005  2.813127205143600E-005  2.882611447110671E-005 
 2.953811949854184E-005  3.026771105015757E-005  3.101532351309597E-005  3.178140200386864E-005 
 3.256640263336392E-005  3.337079277840785E-005  3.419505136003511E-005  3.503966912862858E-005 
 3.590514895610550E-005  3.679200613532115E-005  3.770076868686334E-005  3.863197767343024E-005 
 3.958618752196259E-005  4.056396635375466E-005  4.156589632269279E-005  4.259257396186309E-005 
 4.364461053872111E-005  4.472263241902830E-005  4.582728143977749E-005  4.695921529134144E-005 
 4.811910790903740E-005  4.930764987439045E-005  5.052554882628882E-005  5.177352988229665E-005 
 5.305233607039046E-005  5.436272877132915E-005  5.570548817197947E-005  5.708141372982884E-005 
 5.849132464895399E-005  5.993606036778442E-005  6.141648105886823E-005  6.293346814102330E-005 
 6.448792480410560E-005  6.608077654676818E-005  6.771297172747146E-005  6.938548212914065E-005 
 7.109930353773093E-005  7.285545633511300E-005  7.465498610658879E-005  7.649896426342281E-005 
 7.838848868072845E-005  8.032468435114333E-005  8.230870405461598E-005  8.434172904476494E-005 
 8.642496975217126E-005  8.855966650504871E-005  9.074709026772346E-005  9.298854339733796E-005 
 9.528536041925256E-005  9.763890882160581E-005  1.000505898694997E-004  1.025218394392781E-004 
 1.050541288734280E-004  1.076489658566015E-004  1.103078953132581E-004  1.130325003274968E-004 
 1.158244030855845E-004  1.186852658417987E-004  1.216167919080919E-004  1.246207266682214E-004 
 1.276988586169262E-004  1.308530204247645E-004  1.340850900292577E-004  1.373969917529803E-004 
 1.407906974492791E-004  1.442682276762761E-004  1.478316528998803E-004  1.514830947265068E-004 
 1.552247271662516E-004  1.590587779272567E-004  1.629875297420611E-004  1.670133217266892E-004 
 1.711385507733379E-004  1.753656729774403E-004  1.796972050999830E-004  1.841357260659514E-004 
 1.886838784997810E-004  1.933443702987253E-004  1.981199762451051E-004  2.030135396583590E-004 
 2.080279740879197E-004  2.131662650478926E-004  2.184314717945746E-004  2.238267291479017E-004 
 2.293552493578540E-004  2.350203240169928E-004  2.408253260202126E-004  2.467737115729057E-004 
 2.528690222487584E-004  2.591148870982965E-004  2.655150248096462E-004  2.720732459224294E-004 
 2.787934550967081E-004  2.856796534376114E-004  2.927359408775199E-004  2.999665186171777E-004 
 3.073756916270461E-004  3.149678712102194E-004  3.227475776291213E-004  3.307194427965437E-004 
 3.388882130336399E-004  3.472587518955526E-004  3.558360430673883E-004  3.646251933311458E-004 
 3.736314356064298E-004  3.828601320659021E-004  3.923167773279331E-004  4.020070017279196E-004 
 4.119365746706092E-004  4.221114080649699E-004  4.325375598441671E-004  4.432212375723301E-004 
 4.541688021403540E-004  4.653867715532261E-004  4.768818248106082E-004  4.886608058834080E-004 
 5.007307277887312E-004  5.130987767651164E-004  5.257723165512272E-004  5.387588927700226E-004 
 5.520662374214601E-004  5.657022734857536E-004  5.796751196408727E-004  5.939930950959877E-004 
 6.086647245448686E-004  6.236987432411327E-004  6.391041021991793E-004  6.548899735234904E-004 
 6.710657558695209E-004  6.876410800394954E-004  7.046258147164790E-004  7.220300723399675E-004 
 7.398642151267799E-004  7.581388612403978E-004  7.768648911130504E-004  7.960534539235419E-004 
 8.157159742354370E-004  8.358641587990645E-004  8.565100035213958E-004  8.776658006083784E-004 
 8.993441458834136E-004  9.215579462867354E-004  9.443204275600085E-004  9.676451421207323E-004 
 9.915459771311136E-004  1.016037162766260E-003  1.041133280686578E-003  1.066849272719546E-003 
 1.093200449755715E-003  1.120202500864679E-003  1.147871502636038E-003  1.176223928751150E-003 
 1.205276659791305E-003  1.235046993288158E-003  1.265552654022360E-003  1.296811804576731E-003 
 1.328843056149775E-003  1.361665479636668E-003  1.395298616983677E-003  1.429762492823192E-003 
 1.465077626395928E-003  1.501265043767900E-003  1.538346290348953E-003  1.576343443720591E-003 
 1.615279126780487E-003  1.655176521211954E-003  1.696059381285885E-003  1.737952048003660E-003 
 1.780879463589340E-003  1.824867186339994E-003  1.869941405842597E-003  1.916128958566917E-003 
 1.963457343843518E-003  2.011954740236448E-003  2.061650022320286E-003  2.112572777871613E-003 
 2.164753325485031E-003  2.218222732624512E-003  2.273012834120340E-003  2.329156251123119E-003 
 2.386686410525861E-003  2.445637564865896E-003  2.506044812718088E-003  2.567944119592131E-003 
 2.631372339345972E-003  2.696367236128035E-003  2.762967506860262E-003  2.831212804279650E-003 
 2.901143760545393E-003  2.972802011430875E-003  3.046230221113225E-003  3.121472107574823E-003 
 3.198572468631874E-003  3.277577208607148E-003  3.358533365659558E-003  3.441489139791574E-003 
 3.526493921544218E-003  3.613598321406495E-003  3.702854199945103E-003  3.794314698683954E-003 
 3.888034271741312E-003  3.984068718253337E-003  4.082475215594292E-003  4.183312353419256E-003 
 4.286640168548897E-003  4.392520180711879E-003  4.501015429175689E-003  4.612190510276101E-003 
 4.726111615879934E-003  4.842846572792335E-003  4.962464883140302E-003  5.085037765753913E-003 
 5.210638198567963E-003  5.339340962072552E-003  5.471222683835797E-003  5.606361884126501E-003 
 5.744839022664336E-003  5.886736546524140E-003  6.032138939223363E-003  6.181132771022196E-003 
 6.333806750466371E-003  6.490251777202920E-003  6.650560996099851E-003  6.814829852703434E-003 
 6.983156150065290E-003  7.155640106971994E-003  7.332384417614015E-003  7.513494312729156E-003 
 7.699077622253650E-003  7.889244839523146E-003  8.084109187059435E-003  8.283786683979775E-003 
 8.488396215074200E-003  8.698059601586403E-003  8.912901673745586E-003  9.133050345087284E-003 
 9.358636688610786E-003  9.589795014819496E-003  9.826662951685688E-003  1.006938152659217E-002 
 1.031809525029914E-002  1.057295220298131E-002  1.083410412239502E-002  1.110170649421825E-002 
 1.137591864462533E-002  1.165690383514754E-002  1.194482935987570E-002  1.223986664506466E-002 
 1.254219135119777E-002  1.285198347757235E-002  1.316942746946842E-002  1.349471232796425E-002 
 1.382803172246502E-002  1.416958410600983E-002  1.451957283342839E-002  1.487820628241399E-002 
 1.524569797758965E-002  1.562226671763611E-002  1.600813670556185E-002  1.640353768218907E-002 
 1.680870506293916E-002  1.722388007799373E-002  1.764930991592013E-002  1.808524787084351E-002 
 1.853195349325330E-002  1.898969274453666E-002  1.945873815532672E-002  1.993936898776323E-002 
 2.043187140176102E-002  2.093653862538460E-002  2.145367112943159E-002  2.198357680632848E-002 
 2.252657115344486E-002  2.308297746093492E-002  2.365312700422009E-002  2.423735924122414E-002 
 2.483602201448200E-002  2.544947175823943E-002  2.607807371066890E-002  2.672220213132296E-002 
 2.738224052396611E-002  2.805858186490885E-002  2.875162883697089E-002  2.946179406924421E-002 
 3.018950038275355E-002  3.093518104220959E-002  3.169928001395230E-002  3.248225223029693E-002 
 3.328456386038493E-002  3.410669258773508E-002  3.494912789465347E-002  3.581237135365116E-002 
 3.669693692608648E-002  3.760335126815925E-002  3.853215404448340E-002  3.948389824938228E-002 
 4.045915053614316E-002  4.145849155438472E-002  4.248251629577902E-002  4.353183444828422E-002 
 4.460707075915629E-002  4.570886540690820E-002  4.683787438245819E-002  4.799476987970598E-002 
 4.918024069573246E-002  5.039499264091783E-002  5.163974895914916E-002  5.291525075843934E-002 
 5.422225745217217E-002  5.556154721124207E-002  5.693391742735911E-002  5.834018518781464E-002 
 5.978118776195415E-002  6.125778309967413E-002  6.277085034223626E-002  6.432129034568884E-002 
 6.591002621722761E-002  6.753800386479328E-002  6.920619256025533E-002  7.091558551649346E-002 
 7.266720047875104E-002  7.446208033057441E-002  7.630129371474133E-002  7.818593566949522E-002 
 8.011712828052978E-002  8.209602134906023E-002  8.412379307638174E-002  8.620165076536851E-002 
 8.833083153927265E-002  9.051260307829312E-002  9.274826437432779E-002  9.503914650437176E-002 
 9.738661342303052E-002  9.979206277457998E-002  1.022569267251124E-001  1.047826728152219E-001 
 1.073708048337576E-001  1.100228637131525E-001  1.127404284468672E-001  1.155251170295044E-001 
 1.183785874201322E-001  1.213025385294098E-001  1.242987112310856E-001  1.273688893984938E-001 
 1.305149009666361E-001  1.337386190205134E-001  1.370419629103207E-001  1.404268993942057E-001 
 1.438954438092416E-001  1.474496612713305E-001  1.510916679047330E-001  1.548236321019787E-001 
 1.586477758148982E-001  1.625663758775261E-001  1.665817653617007E-001  1.706963349661345E-001 
 1.749125344397988E-001  1.792328740404614E-001  1.836599260292594E-001  1.881963262021835E-001 
 1.928447754593778E-001  1.976080414132223E-001  2.024889600361300E-001  2.074904373490220E-001 
 2.126154511515424E-001  2.178670527949861E-001  2.232483689990219E-001  2.287626037132986E-001 
 2.344130400250158E-001  2.402030421136337E-001  2.461360572538467E-001  2.522156178680001E-001 
 2.584453436293624E-001  2.648289436169945E-001  2.713702185243337E-001  2.780730629218941E-001 
 2.849414675760600E-001  2.919795218251962E-001  2.991914160142685E-001  3.065814439898301E-001 
 3.141540056563728E-001  3.219136095960700E-001  3.298648757531057E-001  3.380125381842007E-001 
 3.463614478773607E-001  3.549165756399195E-001  3.636830150582223E-001  3.726659855301638E-001 
 3.818708353727595E-001  3.913030450064760E-001  4.009682302181310E-001  4.108721455045319E-001 
 4.210206874984875E-001  4.314198984796841E-001  4.420759699721559E-001  4.529952464304486E-001 
 4.641842290172837E-001  4.756495794740145E-001  4.873981240870232E-001  4.994368577519855E-001 
 5.117729481384431E-001  5.244137399574665E-001  5.373667593344068E-001  5.506397182899841E-001 
 5.642405193317364E-001  5.781772601592443E-001  5.924582384851590E-001  6.070919569757397E-001 
 6.220871283130494E-001  6.374526803823710E-001  6.531977615878203E-001  6.693317462990347E-001 
 6.858642404326233E-001  7.028050871713295E-001  7.201643728244445E-001  7.379524328332052E-001 
 7.561798579242015E-001  7.748575004149173E-001  7.939964806751619E-001  8.136081937478572E-001 
 8.337043161334265E-001  8.542968127419081E-001  8.753979440166472E-001  8.970202732338417E-001 
 9.191766739827157E-001  9.418803378301108E-001  9.651447821744918E-001  9.889838582942252E-001 
 1.013411759594082E+000  1.038443030056067E+000  1.064092572898446E+000  1.090375659449040E+000 
 1.117307938237421E+000  1.144905444311892E+000  1.173184608786380E+000  1.202162268623424E+000 
 1.231855676658405E+000  1.262282511871875E+000  1.293460889915105E+000  1.325409373896007E+000 
 1.358146985431236E+000  1.391693215971394E+000  1.426068038405885E+000  1.461291918954519E+000 
 1.497385829352694E+000  1.534371259337691E+000  1.572270229443347E+000  1.611105304110599E+000 
 1.650899605122135E+000  1.691676825368639E+000  1.733461242955246E+000  1.776277735656250E+000 
 1.820151795726941E+000  1.865109545081399E+000  1.911177750844917E+000
    </PP_RAB>
  </PP_MESH>
  <PP_LOCAL type="real" size="563" columns="4">
-3.226253794766600E+000 -3.226253861854800E+000 -3.226253927323600E+000 -3.226253991212200E+000 
-3.226254053558200E+000 -3.226254114399000E+000 -3.226254173770600E+000 -3.226254231708200E+000 
-3.226254288246200E+000 -3.226254343418400E+000 -3.226254397257400E+000 -3.226254449795400E+000 