<UPF version="2.0.1">
  <PP_INFO>
    Generated using FHI98PP, converted with fhi2upf.x v.5.0.1
    Author: Abinit web site
    Generation date: 10-Jul-2012, PG
    Pseudopotential type: SL
    Element: Hg
    Functional: SLA-PW

    Suggested minimum cutoff for wavefunctions:   0. Ry
    Suggested minimum cutoff for charge density:   0. Ry
    The Pseudo was generated with a Non-Relativistic Calculation
    L component and cutoff radius for Local Potential:  1   0.0000

    Valence configuration: 
    nl pn  l   occ       Rcut    Rcut US       E pseu
    6s  6  0  2.00      0.000      0.000     0.000000
    6p  6  1  0.00      0.000      0.000     0.000000
    5d  5  2 10.00      0.000      0.000     0.000000
    5f  5  3  0.00      0.000      0.000     0.000000

    Generation configuration: not available.
    Comment:
    mercury, fhi98PP : Trouiller-Martins-type, LDA Ceperley/Alder Perdew/Wang (1992)
  </PP_INFO>
  <!--                               -->
  <!-- END OF HUMAN READABLE SECTION -->
  <!--                               -->
  <PP_HEADER generated="Generated using FHI98PP, converted with fhi2upf.x v.5.0.1"
             author="Abinit web site"
             date="10-Jul-2012, PG"
             comment="mercury, fhi98PP : Trouiller-Martins-type, LDA Ceperley/Alder Perdew/Wang (1992)"
             element="Hg"
             pseudo_type="SL"
             relativistic="no"
             is_ultrasoft="F"
             is_paw="F"
             is_coulomb="F"
             has_so="F"
             has_wfc="F"
             has_gipaw="F"
             paw_as_gipaw="F"
             core_correction="T"
             functional="SLA-PW"
             z_valence="1.200000000000000E+001"
             total_psenergy="0.000000000000000E+000"
             wfc_cutoff="0.000000000000000E+000"
             rho_cutoff="0.000000000000000E+000"
             l_max="3"
             l_max_rho="0"
             l_local="1"
             mesh_size="567"
             number_of_wfc="4"
             number_of_proj="3"/>
  <PP_MESH dx="2.439988682353512E-002" mesh="567" xmin="-5.075173815233827E+000" rmax="7.772177729827099E+001"
zmesh="8.000000000000000E+001">
    <PP_R type="real" size="567" columns="4">
 7.812500000000000E-005  8.005468749999999E-005  8.203203828125000E-005  8.405822962679700E-005 
 8.613446789857900E-005  8.826198925567400E-005  9.044206039028900E-005  9.267597928192900E-005 
 9.496507597019300E-005  9.731071334665600E-005  9.971428796631900E-005  1.021772308790900E-004 
 1.047010084818000E-004  1.072871233913000E-004  1.099371153390700E-004  1.126525620879400E-004 
 1.154350803715100E-004  1.182863268566900E-004  1.212079991300500E-004  1.242018367085600E-004 
 1.272696220752600E-004  1.304131817405200E-004  1.336343873295100E-004  1.369351566965500E-004 
 1.403174550669600E-004  1.437832962071100E-004  1.473347436234300E-004  1.509739117909200E-004 
 1.547029674121600E-004  1.585241307072400E-004  1.624396767357100E-004  1.664519367510800E-004 
 1.705632995888300E-004  1.747762130886800E-004  1.790931855519700E-004  1.835167872351000E-004 
 1.880496518798100E-004  1.926944782812400E-004  1.974540318947900E-004  2.023311464825900E-004 
 2.073287258007100E-004  2.124497453279900E-004  2.176972540375900E-004  2.230743762123100E-004 
 2.285843133047600E-004  2.342303458433900E-004  2.400158353857200E-004  2.459442265197500E-004 
 2.520190489147800E-004  2.582439194229800E-004  2.646225442327300E-004  2.711587210752700E-004 
 2.778563414858300E-004  2.847193931205300E-004  2.917519621306100E-004  2.989582355952400E-004 
 3.063425040144400E-004  3.139091638636000E-004  3.216627202110300E-004  3.296077894002400E-004 
 3.377491017984200E-004  3.460915046128500E-004  3.546399647767800E-004  3.633995719067700E-004 
 3.723755413328700E-004  3.815732172037900E-004  3.909980756687200E-004  4.006557281377400E-004 
 4.105519246227400E-004  4.206925571609200E-004  4.310836633228000E-004  4.417314298068700E-004 
 4.526421961231000E-004  4.638224583673400E-004  4.752788730890100E-004  4.870182612543100E-004 
 4.990476123072900E-004  5.113740883312800E-004  5.240050283130700E-004  5.369479525124000E-004 
 5.502105669394600E-004  5.638007679428600E-004  5.777266469110500E-004  5.919964950897500E-004 
 6.066188085184700E-004  6.216022930888800E-004  6.369558697281700E-004  6.526886797104600E-004 
 6.688100900993000E-004  6.853296993247600E-004  7.022573428980800E-004  7.196030992676600E-004 
 7.373772958195700E-004  7.555905150263200E-004  7.742536007474700E-004  7.933776646859301E-004 
 8.129740930036700E-004  8.330545531008600E-004  8.536310005624500E-004  8.747156862763400E-004 
 8.963211637273700E-004  9.184602964714400E-004  9.411462657942800E-004  9.643925785594000E-004 
 9.882130752498200E-004  1.012621938208500E-003  1.037633700082200E-003  1.063263252474300E-003 
 1.089525854810400E-003  1.116437143424200E-003  1.144013140866800E-003  1.172270265446200E-003 
 1.201225341002700E-003  1.230895606925500E-003  1.261298728416500E-003  1.292452807008400E-003 
 1.324376391341500E-003  1.357088488207700E-003  1.390608573866400E-003  1.424956605640900E-003 
 1.460153033800200E-003  1.496218813735100E-003  1.533175418434300E-003  1.571044851269700E-003 
 1.609849659096000E-003  1.649612945675700E-003  1.690358385433900E-003  1.732110237554100E-003 
 1.774893360421700E-003  1.818733226424100E-003  1.863655937116800E-003  1.909688238763600E-003 
 1.956857538261000E-003  2.005191919456100E-003  2.054720159866600E-003  2.105471747815400E-003 
 2.157476899986400E-003  2.210766579416100E-003  2.265372513927600E-003  2.321327215021600E-003 
 2.378663997232700E-003  2.437416997964300E-003  2.497621197814000E-003  2.559312441400100E-003 
 2.622527458702600E-003  2.687303886932600E-003  2.753680292939800E-003  2.821696196175400E-003 
 2.891392092221000E-003  2.962809476898800E-003  3.035990870978200E-003  3.110979845491400E-003 
 3.187821047675000E-003  3.266560227552600E-003  3.347244265173200E-003  3.429921198522900E-003 
 3.514640252126400E-003  3.601451866354000E-003  3.690407727452900E-003  3.781560798321000E-003 
 3.874965350039500E-003  3.970676994185500E-003  4.068752715941900E-003  4.169250908025600E-003 
 4.272231405453900E-003  4.377755521168600E-003  4.485886082541500E-003  4.596687468780200E-003 
 4.710225649259100E-003  4.826568222795800E-003  4.945784457898900E-003  5.067945334009000E-003 
 5.193123583759000E-003  5.321393736277800E-003  5.452832161563900E-003  5.587517115954500E-003 
 5.725528788718600E-003  5.866949349799900E-003  6.011862998740000E-003  6.160356014808900E-003 
 6.312516808374700E-003  6.468435973541500E-003  6.628206342088000E-003  6.791923038737600E-003 
 6.959683537794400E-003  7.131587721177900E-003  7.307737937891000E-003  7.488239064956900E-003 
 7.673198569861300E-003  7.862726574536899E-003  8.056935920928000E-003  8.255942238174900E-003 
 8.459864011457799E-003  8.668822652540801E-003  8.882942572058600E-003  9.102351253588400E-003 
 9.327179329552000E-003  9.557560658992000E-003  9.793632407269100E-003  1.003553512772900E-002 
 1.028341284538400E-002  1.053741314266400E-002  1.079768724728800E-002  1.106439012229600E-002 
 1.133768055831700E-002  1.161772126810700E-002  1.190467898343000E-002  1.219872455432000E-002 
 1.250003305081200E-002  1.280878386716700E-002  1.312516082868600E-002  1.344935230115500E-002 
 1.378155130299300E-002  1.412195562017700E-002  1.447076792399600E-002  1.482819589171800E-002 
 1.519445233024400E-002  1.556975530280100E-002  1.595432825878000E-002  1.634840016677200E-002 
 1.675220565089100E-002  1.716598513046800E-002  1.758998496319100E-002  1.802445759178100E-002 
 1.846966169429800E-002  1.892586233814800E-002  1.939333113790000E-002  1.987234641700600E-002 
 2.036319337350600E-002  2.086616424983200E-002  2.138155850680300E-002  2.190968300192100E-002 
 2.245085217206800E-002  2.300538822071800E-002  2.357362130977000E-002  2.415588975612100E-002 
 2.475254023309700E-002  2.536392797685500E-002  2.599041699788300E-002  2.663238029773100E-002 
 2.729020009108500E-002  2.796426803333500E-002  2.865498545375800E-002  2.936276359446600E-002 
 3.008802385524900E-002  3.083119804447400E-002  3.159272863617200E-002  3.237306903348600E-002 
 3.317268383861300E-002  3.399204912942600E-002  3.483165274292300E-002  3.569199456567300E-002 
 3.657358683144600E-002  3.747695442618200E-002  3.840263520050900E-002  3.935118028996200E-002 
 4.032315444312400E-002  4.131913635786900E-002  4.233971902590800E-002  4.338551008584800E-002 
 4.445713218496900E-002  4.555522334993700E-002  4.668043736668100E-002  4.783344416963800E-002 
 4.901493024062800E-002  5.022559901757100E-002  5.146617131330500E-002  5.273738574474400E-002 
 5.403999917263900E-002  5.537478715220300E-002  5.674254439486300E-002  5.814408524141600E-002 
 5.958024414687900E-002  6.105187617730700E-002  6.255985751888600E-002  6.410508599960300E-002 
 6.568848162379300E-002  6.731098711990000E-002  6.897356850176201E-002  7.067721564375599E-002 
 7.242294287015601E-002  7.421178955904900E-002  7.604482076115800E-002  7.792312783395799E-002 
 7.984782909145700E-002  8.182007047001599E-002  8.384102621062500E-002  8.591189955802800E-002 
 8.803392347711100E-002  9.020836138699601E-002  9.243650791325500E-002  9.471968965871200E-002 
 9.705926599328200E-002  9.945662986331601E-002  1.019132086209400E-001  1.044304648738800E-001 
 1.070098973562600E-001  1.096530418209600E-001  1.123614719539400E-001  1.151368003112000E-001 
 1.179806792788900E-001  1.208948020570800E-001  1.238809036678900E-001  1.269407619884800E-001 
 1.300761988096000E-001  1.332890809202000E-001  1.365813212189300E-001  1.399548798530300E-001 
 1.434117653854000E-001  1.469540359904200E-001  1.505838006793900E-001  1.543032205561700E-001 
 1.581145101039000E-001  1.620199385034700E-001  1.660218309845100E-001  1.701225702098200E-001 
 1.743245976940100E-001  1.786304152570500E-001  1.830425865139000E-001  1.875637384007900E-001 
 1.921965627392900E-001  1.969438178389500E-001  2.018083301395700E-001  2.067929958940200E-001 
 2.119007828926000E-001  2.171347322300500E-001  2.224979601161300E-001  2.279936597310000E-001 
 2.336251031263500E-001  2.393956431735800E-001  2.453087155599600E-001  2.513678408342900E-001 
 2.575766265029000E-001  2.639387691775200E-001  2.704580567762100E-001  2.771383707785800E-001 
 2.839836885368100E-001  2.909980856436700E-001  2.981857383590700E-001  3.055509260965400E-001 
 3.130980339711200E-001  3.208315554102100E-001  3.287560948288400E-001  3.368763703711100E-001 
 3.451972167192800E-001  3.537235879722500E-001  3.624605605951600E-001  3.714133364418600E-001 
 3.805872458519700E-001  3.899877508245200E-001  3.996204482698800E-001  4.094910733421500E-001 
 4.196055028537000E-001  4.299697587741900E-001  4.405900118159100E-001  4.514725851077600E-001 
 4.626239579599200E-001  4.740507697215300E-001  4.857598237336600E-001  4.977580913798800E-001 
 5.100527162369600E-001  5.226510183280100E-001  5.355604984807200E-001  5.487888427931900E-001 
 5.623439272101800E-001  5.762338222122700E-001  5.904667976209200E-001  6.050513275221500E-001 
 6.199960953119500E-001  6.353099988661500E-001  6.510021558381500E-001  6.670819090873500E-001 
 6.835588322418100E-001  7.004427353981800E-001  7.177436709625200E-001  7.354719396352900E-001 
 7.536380965442800E-001  7.722529575289300E-001  7.913276055798900E-001  8.108733974377100E-001 
 8.309019703544200E-001  8.514252490221800E-001  8.724554526730300E-001  8.940051023540500E-001 
 9.160870283821900E-001  9.387143779832300E-001  9.619006231194200E-001  9.856595685104700E-001 
 1.010005359852700E+000  1.034952492241000E+000  1.060515818799400E+000  1.086710559523700E+000 
 1.113552310344000E+000  1.141057052409500E+000  1.169241161604000E+000  1.198121418295600E+000 
 1.227715017327500E+000  1.258039578255500E+000  1.289113155838400E+000  1.320954250787600E+000 
 1.353581820782100E+000  1.387015291755400E+000  1.421274569461700E+000  1.456380051327400E+000 
 1.492352638595200E+000  1.529213748768500E+000  1.566985328363100E+000  1.605689865973700E+000 
 1.645350405663200E+000  1.685990560683100E+000  1.727634527532000E+000  1.770307100362000E+000 
 1.814033685741000E+000  1.858840317778800E+000  1.904753673627900E+000  1.951801089366500E+000 
 2.000010576273900E+000  2.049410837507800E+000  2.100031285194300E+000  2.151902057938600E+000 
 2.205054038769700E+000  2.259518873527300E+000  2.315328989703400E+000  2.372517615749100E+000 
 2.431118800858100E+000  2.491167435239300E+000  2.552699270889700E+000  2.615750942880700E+000 
 2.680359991169800E+000  2.746564882951700E+000  2.814405035560600E+000  2.883920839939000E+000 
 2.955153684685400E+000  3.028145980697200E+000  3.102941186420400E+000  3.179583833725000E+000 
 3.258119554418000E+000  3.338595107412100E+000  3.421058406565200E+000  3.505558549207400E+000 
 3.592145845372800E+000  3.680871847753500E+000  3.771789382393000E+000  3.864952580138100E+000 
 3.960416908867500E+000  4.058239206516500E+000  4.158477714917500E+000  4.261192114476000E+000 
 4.366443559703500E+000  4.474294715628200E+000  4.584809795104200E+000  4.698054597043300E+000 
 4.814096545590200E+000  4.933004730266300E+000  5.054849947103900E+000  5.179704740797400E+000 
 5.307643447895100E+000  5.438742241058100E+000  5.573079174412200E+000  5.710734230020200E+000 
 5.851789365501700E+000  5.996328562829600E+000  6.144437878331500E+000  6.296205493926300E+000 
 6.451721769626200E+000  6.611079297336000E+000  6.774372955980200E+000  6.941699967992900E+000 
 7.113159957202300E+000  7.288855008145200E+000  7.468889726846400E+000  7.653371303099500E+000 
 7.842409574286100E+000  8.036117090770899E+000  8.234609182912999E+000  8.438004029730900E+000 
 8.646422729265300E+000  8.859989370678100E+000  9.078831108133899E+000  9.303078236504801E+000 
 9.532864268946501E+000  9.768326016389400E+000  1.000960366899400E+001  1.025684087961800E+001 
 1.051018484934500E+001  1.076978641512400E+001  1.103580013957700E+001  1.130838440302500E+001 
 1.158770149778000E+001  1.187391772477500E+001  1.216720349257700E+001  1.246773341884300E+001 
 1.277568643428900E+001  1.309124588921600E+001  1.341459966267900E+001  1.374594027434800E+001 
 1.408546499912400E+001  1.443337598460200E+001  1.478988037142200E+001  1.515519041659600E+001 
 1.552952361988600E+001  1.591310285329700E+001  1.630615649377400E+001  1.670891855917000E+001 
 1.712162884758100E+001  1.754453308011700E+001  1.797788304719500E+001  1.842193675846100E+001 
 1.887695859639500E+001  1.934321947372600E+001  1.982099699472700E+001  2.031057562049700E+001 
 2.081224683832300E+001  2.132630933523000E+001  2.185306917581000E+001  2.239283998445300E+001 
 2.294594313206800E+001  2.351270792743100E+001  2.409347181323800E+001  2.468858056702500E+001 
 2.529838850703100E+001  2.592325870315400E+001  2.656356319312200E+001  2.721968320399200E+001 
 2.789200937913100E+001  2.858094201079500E+001  2.928689127846200E+001  3.001027749304000E+001 
 3.075153134711800E+001  3.151109417139200E+001  3.228941819742500E+001  3.308696682690200E+001 
 3.390421490752600E+001  3.474164901574200E+001  3.559976774643100E+001  3.647908200976800E+001 
 3.738011533540900E+001  3.830340418419400E+001  3.924949826754300E+001  4.021896087475200E+001 
 4.121236920835800E+001  4.223031472780400E+001  4.327340350158100E+001  4.434225656807000E+001 
 4.543751030530200E+001  4.655981680984200E+001  4.770984428504600E+001  4.888827743888600E+001 
 5.009581789162700E+001  5.133318459355000E+001  5.260111425301100E+001  5.390036177506000E+001 
 5.523170071090400E+001  5.659592371846300E+001  5.799384303430900E+001  5.942629095725700E+001 
 6.089412034390100E+001  6.239820511639500E+001  6.393944078277000E+001  6.551874497010500E+001 
 6.713705797086600E+001  6.879534330274700E+001  7.049458828232400E+001  7.223580461289799E+001 
 7.402002898683600E+001  7.584832370281100E+001  7.772177729827099E+001
    </PP_R>
    <PP_RAB type="real" size="567" columns="4">
 1.906241158088681E-006  1.953325314693472E-006  2.001572449966401E-006  2.051011289480574E-006 
 2.101671268330747E-006  2.153582548658518E-006  2.206776037610380E-006  2.261283405739353E-006 
 2.317137105861124E-006  2.374370392375875E-006  2.433017341067574E-006  2.493112869392014E-006 
 2.554692757265911E-006  2.617793668370368E-006  2.682453171979235E-006  2.748709765326999E-006 
 2.816602896530525E-006  2.886172988074919E-006  2.957461460880363E-006  3.030510758964054E-006 
 3.105364374710431E-006  3.182066874765805E-006  3.260663926572500E-006  3.341202325558867E-006 
 3.423730023000299E-006  3.508296154568311E-006  3.594951069586255E-006  3.683746361004822E-006 
 3.774734896121746E-006  3.867970848055945E-006  3.963509728002955E-006  4.061408418284578E-006 
 4.161725206216167E-006  4.264519818809850E-006  4.369853458334443E-006  4.477788838755215E-006 
 4.588390223072543E-006  4.701723461582403E-006  4.817856031083569E-006  4.936857075051303E-006 
 5.058797444805070E-006  5.183749741691815E-006  5.311788360311570E-006  5.442989532811059E-006 
 5.577431374271637E-006  5.715193929216206E-006  5.856359219267804E-006  6.001011291983785E-006 
 6.149236270895594E-006  6.301122406786835E-006  6.456760130234529E-006  6.616242105451115E-006 
 6.779663285455778E-006  6.947120968606536E-006  7.118714856531189E-006  7.294547113487604E-006 
 7.474722427190690E-006  7.659348071142381E-006  7.848533968499576E-006  8.042392757521456E-006 
 8.241039858632091E-006  8.444593543140524E-006  8.653175003655915E-006  8.866908426246302E-006 
 9.085921064374653E-006  9.310343314664661E-006  9.540308794536789E-006  9.775954421761913E-006 
 1.001742049597938E-005  1.026485078223003E-005  1.051839259655124E-005  1.077819689368598E-005 
 1.104441835696003E-005  1.131721549037693E-005  1.159675071298916E-005  1.188319045560002E-005 
 1.217670525985331E-005  1.247746987977168E-005  1.278566338580223E-005  1.310146927143147E-005 
 1.342507556243592E-005  1.375667492882797E-005  1.409646479957006E-005  1.444464748011937E-005 
 1.480143027287839E-005  1.516702560061858E-005  1.554165113295373E-005  1.592552991593779E-005 
 1.631889050486125E-005  1.672196710033150E-005  1.713499968770965E-005  1.755823417999601E-005 
 1.799192256424189E-005  1.843632305157882E-005  1.889170023095282E-005  1.935832522665729E-005 
 1.983647585975566E-005  2.032643681349161E-005  2.082849980278483E-005  2.134296374791355E-005 
 2.187013495248712E-005  2.241032728581365E-005  2.296386236977314E-005  2.353106977030657E-005 
 2.411228719363320E-005  2.470786068731618E-005  2.531814484629166E-005  2.594350302399677E-005 
 2.658430754868912E-005  2.724093994514133E-005  2.791379116178686E-005  2.860326180348275E-005 
 2.930976237002826E-005  3.003371350056877E-005  3.077554622403136E-005  3.153570221576524E-005 
 3.231463406049446E-005  3.311280552179026E-005  3.393069181817774E-005  3.476877990608673E-005 
 3.562756876976633E-005  3.650756971838042E-005  3.740930669042302E-005  3.833331656567825E-005 
 3.928014948484900E-005  4.025036917712547E-005  4.124455329580072E-005  4.226329376220657E-005 
 4.330719711813341E-005  4.437688488695091E-005  4.547299394365921E-005  4.659617689406796E-005 
 4.774710246334994E-005  4.892645589419600E-005  5.013493935478103E-005  5.137327235684644E-005 
 5.264219218405956E-005  5.394245433100671E-005  5.527483295298068E-005  5.664012132691902E-005 
 5.803913232369554E-005  5.947269889208966E-005  6.094167455472383E-005  6.244693391622780E-005 
 6.398937318395662E-005  6.556991070160146E-005  6.718948749593016E-005  6.884906783707931E-005 
 7.054963981265683E-005  7.229221591602801E-005  7.407783364915389E-005  7.590755614028894E-005 
 7.778247277695316E-005  7.970369985454458E-005  8.167238124095306E-005  8.368968905760270E-005 
 8.575682437732509E-005  8.787501793944693E-005  9.004553088255021E-005  9.226965549534952E-005 
 9.454871598608396E-005  9.688406927094082E-005  9.927710578193350E-005  1.017292502947457E-004 
 1.042419627770275E-004  1.068167392576199E-004  1.094551127172839E-004  1.121586540013990E-004 
 1.149289727552343E-004  1.177677183822886E-004  1.206765810263322E-004  1.236572925776825E-004 
 1.267116277043507E-004  1.298414049086470E-004  1.330484876098915E-004  1.363347852538552E-004 
 1.397022544496260E-004  1.431529001345305E-004  1.466887767678545E-004  1.503119895540210E-004 
 1.540246956960058E-004  1.578291056796958E-004  1.617274845899849E-004  1.657221534593582E-004 
 1.698154906498039E-004  1.740099332688535E-004  1.783079786205943E-004  1.827121856925228E-004 
 1.872251766791273E-004  1.918496385431023E-004  1.965883246151179E-004  2.014440562331108E-004 
 2.064197244220681E-004  2.115182916152931E-004  2.167427934181918E-004  2.220963404156200E-004 
 2.275821200238850E-004  2.332033983884765E-004  2.389635223286719E-004  2.448659213301986E-004 
 2.509141095870569E-004  2.571116880938331E-004  2.634623467897557E-004  2.699698667554623E-004 
 2.766381224643293E-004  2.834710840891877E-004  2.904728198662092E-004  2.976474985168869E-004 
 3.049993917302612E-004  3.125328767059973E-004  3.202524387606348E-004  3.281626739980337E-004 
 3.362682920457722E-004  3.445741188593046E-004  3.530850995951447E-004  3.618063015551277E-004 
 3.707429172035531E-004  3.799002672584802E-004  3.892838038597602E-004  3.988991138150995E-004 
 4.087519219263259E-004  4.188480943979059E-004  4.291936423295449E-004  4.397947252950648E-004 
 4.506576550098531E-004  4.617888990886170E-004  4.731950848960996E-004  4.848830034930301E-004 
 4.968596136793067E-004  5.091320461371953E-004  5.217076076767878E-004  5.345937855864036E-004 
 5.477982520903768E-004  5.613288689170073E-004  5.751936919792638E-004  5.894009761711438E-004 
 6.039591802825665E-004  6.188769720355581E-004  6.341632332448287E-004  6.498270651059830E-004 
 6.658777936141019E-004  6.823249751163750E-004  6.991784020017404E-004  7.164481085311877E-004 
 7.341443768119004E-004  7.522777429191630E-004  7.708590031692539E-004  7.898992205475479E-004 
 8.094097312950698E-004  8.294021516580400E-004  8.498883848039978E-004  8.708806279086518E-004 
 8.923913794180169E-004  9.144334464896244E-004  9.370199526179256E-004  9.601643454475987E-004 
 9.838804047801531E-004  1.008182250778219E-003  1.033084352372432E-003  1.058601535876033E-003 
 1.084748993812184E-003  1.111542293959327E-003  1.138997388620136E-003  1.167130624119053E-003 
 1.195958750534792E-003  1.225498931672989E-003  1.255768755285312E-003  1.286786243540868E-003 
 1.318569863756323E-003  1.351138539391100E-003  1.384511661314074E-003  1.418709099348529E-003 
 1.453751214102438E-003  1.489658869090771E-003  1.526453443157301E-003  1.564156843203299E-003 
 1.602791517230416E-003  1.642380467705990E-003  1.682947265258340E-003  1.724516062710232E-003 
 1.767111609459156E-003  1.810759266212801E-003  1.855485020088269E-003  1.901315500084435E-003 
 1.948277992936526E-003  1.996400459362058E-003  2.045711550708292E-003  2.096240626010800E-003 
 2.148017769473260E-003  2.201073808379258E-003  2.255440331446231E-003  2.311149707632943E-003 
 2.368235105411472E-003  2.426730512515134E-003  2.486670756174260E-003  2.548091523851832E-003 
 2.611029384490854E-003  2.675521810287788E-003  2.741607199001952E-003  2.809324896817243E-003 
 2.878715221768711E-003  2.949819487746433E-003  3.022680029093773E-003  3.097340225812221E-003 
 3.173844529389894E-003  3.252238489265894E-003  3.332568779950788E-003  3.414883228815388E-003 
 3.499230844567131E-003  3.585661846427955E-003  3.674227694034887E-003  3.764981118077526E-003 
 3.857976151693861E-003  3.953268162640788E-003  4.050913886258120E-003  4.150971459248516E-003 
 4.253500454292135E-003  4.358561915513101E-003  4.466218394826297E-003  4.576533989178424E-003 
 4.689574378711143E-003  4.805406865865298E-003  4.924100415452120E-003  5.045725695713851E-003 
 5.170355120397927E-003  5.298062891871824E-003  5.428925045301003E-003  5.563019493919977E-003 
 5.700426075419661E-003  5.841226599482750E-003  5.985504896489793E-003  6.133346867433066E-003 
 6.284840535058737E-003  6.440076096274648E-003  6.599145975852760E-003  6.762144881456265E-003 
 6.929169860028212E-003  7.100320355570929E-003  7.275698268353562E-003  7.455408015581920E-003 
 7.639556593566683E-003  7.828253641427863E-003  8.021611506371075E-003  8.219745310578385E-003 
 8.422773019749757E-003  8.630815513337669E-003  8.843996656516999E-003  9.062443373932956E-003 
 9.286285725269005E-003  9.515656982683304E-003  9.750693710155444E-003  9.991535844796380E-003 
 1.023832678016282E-002  1.049121345163293E-002  1.075034642388821E-002  1.101587998055817E-002 
 1.128797221607792E-002  1.156678512981504E-002  1.185248472252167E-002  1.214524109516792E-002 
 1.244522855021850E-002  1.275262569540882E-002  1.306761555008562E-002  1.339038565417264E-002 
 1.372112817983067E-002  1.406004004587245E-002  1.440732303500566E-002  1.476318391397014E-002 
 1.512783455664527E-002  1.550149207019429E-002  1.588437892432823E-002  1.627672308375908E-002 
 1.667875814392800E-002  1.709072347008295E-002  1.751286433979412E-002  1.794543208898693E-002 
 1.838868426158487E-002  1.884288476284617E-002  1.930830401648835E-002  1.978521912569554E-002 
 2.027391403810018E-002  2.077467971484140E-002  2.128781430379803E-002  2.181362331710175E-002 
 2.235241981303404E-002  2.290452458241598E-002  2.347026633960176E-002  2.404998191818993E-002 
 2.464401647156974E-002  2.525272367841601E-002  2.587646595327404E-002  2.651561466231881E-002 
 2.717055034447965E-002  2.784166293798838E-002  2.852935201255634E-002  2.923402700726602E-002 
 2.995610747434546E-002  3.069602332896206E-002  3.145421510518715E-002  3.223113421828507E-002 
 3.302724323347784E-002  3.384301614134431E-002  3.467893864003409E-002  3.553550842444283E-002 
 3.641323548252689E-002  3.731264239894527E-002  3.823426466619965E-002  3.917865100345556E-002 
 4.014636368323968E-002  4.113797886621617E-002  4.215408694421237E-002  4.319529289173343E-002 
 4.426221662616068E-002  4.535549337682678E-002  4.647577406323351E-002  4.762372568259516E-002 
 4.880003170695642E-002  5.000539249011664E-002  5.124052568462393E-002  5.250616666903415E-002 
 5.380306898575971E-002  5.513200478970769E-002  5.649376530801288E-002  5.788916131112142E-002 
 5.931902359550606E-002  6.078420347831518E-002  6.228557330422931E-002  6.382402696484436E-002 
 6.540048043087472E-002  6.701587229751747E-002  6.867116434326598E-002  7.036734210254594E-002 
 7.210541545247656E-002  7.388641921415445E-002  7.571141376874355E-002  7.758148568883191E-002 
 7.949774838534589E-002  8.146134277046332E-002  8.347343793689428E-002  8.553523185393654E-002 
 8.764795208072822E-002  8.981285649712201E-002  9.203123405260064E-002  9.430440553369969E-002 
 9.663372435038181E-002  9.902057734183559E-002  1.014663856021800E-001  1.039726053265547E-001 
 1.065407286781192E-001  1.091722846764693E-001  1.118688401079777E-001  1.146320004586454E-001 
 1.174634108699723E-001  1.203647571184611E-001  1.233377666192877E-001  1.263842094547849E-001 
 1.295058994283182E-001  1.327046951441974E-001  1.359825011142582E-001  1.393412688917809E-001 
 1.427829982334079E-001  1.463097382897733E-001  1.499235888255309E-001  1.536267014695218E-001 
 1.574212809958170E-001  1.613095866364145E-001  1.652939334263340E-001  1.693766935819641E-001 
 1.735602979134380E-001  1.778472372719000E-001  1.822400640325163E-001  1.867413936141193E-001 
 1.913539060363891E-001  1.960803475154863E-001  2.009235320991202E-001  2.058863433419672E-001 
 2.109717360225150E-001  2.161827379022698E-001  2.215224515284571E-001  2.269940560812098E-001 
 2.326008092664165E-001  2.383460492552950E-001  2.442331966718955E-001  2.502657566296876E-001 
 2.564473208184516E-001  2.627815696426716E-001  2.692722744128319E-001  2.759232995908398E-001 
 2.827386050907404E-001  2.897222486364777E-001  2.968783881778000E-001  3.042112843657758E-001 
 3.117253030896245E-001  3.194249180759398E-001  3.273147135524000E-001  3.353993869771645E-001 
 3.436837518354908E-001  3.521727405058186E-001  3.608714071963204E-001  3.697849309540664E-001 
 3.789186187486339E-001  3.882779086317206E-001  3.978683729749379E-001  4.076957217874136E-001 
 4.177658061155505E-001  4.280846215266228E-001  4.386583116783087E-001  4.494931719767699E-001 
 4.605956533245964E-001  4.719723659617149E-001  4.836300834009686E-001  4.955757464609785E-001 
 5.078164673985578E-001  5.203595341433125E-001  5.332124146366479E-001  5.463827612781852E-001 
 5.598784154817322E-001  5.737074123441535E-001  5.878779854290407E-001  6.023985716691386E-001 
 6.172778163893781E-001  6.325245784541794E-001  6.481479355420000E-001  6.641571895498846E-001 
 6.805618721317765E-001  6.973717503734183E-001  7.145968326076506E-001  7.322473743730593E-001 
 7.503338845200718E-001  7.688671314677220E-001  7.878581496149655E-001  8.073182459104697E-001 
 8.272590065844466E-001  8.476923040470851E-001  8.686303039570523E-001  8.900854724647953E-001 
 9.120705836346692E-001  9.345987270504552E-001  9.576833156085869E-001  9.813380935041359E-001 
 1.005577144413679E+000  1.030414899880686E+000  1.055866147907745E+000  1.081946041761065E+000 
 1.108670108992579E+000  1.136054260684673E+000  1.164114800923606E+000  1.192868436506404E+000 
 1.222332286888125E+000  1.252523894374257E+000  1.283461234565308E+000  1.315162727059063E+000 
 1.347647246417422E+000  1.380934133403924E+000  1.415043206499000E+000  1.449994773699540E+000 
 1.485809644609912E+000  1.522509142831768E+000  1.560115118659714E+000  1.598649962090623E+000 
 1.638136616154247E+000  1.678598590573272E+000  1.720059975760411E+000  1.762545457161707E+000 
 1.806080329953587E+000  1.850690514103445E+000  1.896402569801813E+000
    </PP_RAB>
  </PP_MESH>
  <PP_NLCC type="real" size="567" columns="4">
 6.931211465098724E+000  6.931211465098326E+000  6.931211465097928E+000  6.931211465097451E+000 