<UPF version="2.0.1">
  <PP_INFO>
    Generated using FHI98PP, converted with fhi2upf.x v.5.0.1
    Author: Abinit web site
    Generation date: 10-Jul-2012, PG
    Pseudopotential type: SL
    Element: Hs
    Functional: SLA-PW

    Suggested minimum cutoff for wavefunctions:   0. Ry
    Suggested minimum cutoff for charge density:   0. Ry
    The Pseudo was generated with a Non-Relativistic Calculation
    L component and cutoff radius for Local Potential:  0   0.0000

    Valence configuration: 
    nl pn  l   occ       Rcut    Rcut US       E pseu
    7s  7  0  2.00      0.000      0.000     0.000000
    7p  7  1  0.00      0.000      0.000     0.000000
    6d  6  2  6.00      0.000      0.000     0.000000
    5f  5  3 14.00      0.000      0.000     0.000000

    Generation configuration: not available.
    Comment:
    hassium, fhi98PP : Trouiller-Martins-type, LDA Ceperley/Alder Perdew/Wang (1992)
  </PP_INFO>
  <!--                               -->
  <!-- END OF HUMAN READABLE SECTION -->
  <!--                               -->
  <PP_HEADER generated="Generated using FHI98PP, converted with fhi2upf.x v.5.0.1"
             author="Abinit web site"
             date="10-Jul-2012, PG"
             comment="hassium, fhi98PP : Trouiller-Martins-type, LDA Ceperley/Alder Perdew/Wang (1992)"
             element="Hs"
             pseudo_type="SL"
             relativistic="no"
             is_ultrasoft="F"
             is_paw="F"
             is_coulomb="F"
             has_so="F"
             has_wfc="F"
             has_gipaw="F"
             paw_as_gipaw="F"
             core_correction="T"
             functional="SLA-PW"
             z_valence="2.200000000000000E+001"
             total_psenergy="0.000000000000000E+000"
             wfc_cutoff="0.000000000000000E+000"
             rho_cutoff="0.000000000000000E+000"
             l_max="3"
             l_max_rho="0"
             l_local="0"
             mesh_size="579"
             number_of_wfc="4"
             number_of_proj="3"/>
  <PP_MESH dx="2.439988682353512E-002" mesh="579" xmin="-5.075173815233834E+000" rmax="7.715601506727600E+001"
zmesh="1.080000000000000E+002">
    <PP_R type="real" size="579" columns="4">
 5.787037037037000E-005  5.929976851851900E-005  6.076447280092600E-005  6.226535527910900E-005 
 6.380330955450300E-005  6.537925130049900E-005  6.699411880762100E-005  6.864887354217001E-005 
 7.034450071866099E-005  7.208200988641199E-005  7.386243553060600E-005  7.568683768821200E-005 
 7.755630257911101E-005  7.947194325281501E-005  8.143490025116000E-005  8.344634228736300E-005 
 8.550746694186100E-005  8.761950137532499E-005  8.978370305929601E-005  9.200136052486000E-005 
 9.427379412982400E-005  9.660235684483100E-005  9.898843505889800E-005  1.014334494048500E-004 
 1.039388556051500E-004  1.065061453386000E-004  1.091368471284600E-004  1.118325272525400E-004 
 1.145947906756700E-004  1.174252820053600E-004  1.203256864709000E-004  1.232977309267300E-004 
 1.263431848806200E-004  1.294638615471700E-004  1.326616189273800E-004  1.359383609148900E-004 
 1.392960384294900E-004  1.427366505787000E-004  1.462622458479900E-004  1.498749233204400E-004 
 1.535768339264500E-004  1.573701817244300E-004  1.612572252130300E-004  1.652402786757900E-004 
 1.693217135590800E-004  1.735039598839900E-004  1.777895076931200E-004  1.821809085331400E-004 
 1.866807769739100E-004  1.912917921651700E-004  1.960166994316500E-004  2.008583119076100E-004 
 2.058195122117300E-004  2.109032541633600E-004  2.161125645411900E-004  2.214505448853600E-004 
 2.269203733440300E-004  2.325253065656300E-004  2.382686816378000E-004  2.441539180742500E-004 
 2.501845198506800E-004  2.563640774910000E-004  2.626962702050200E-004  2.691848680790900E-004 
 2.758337343206400E-004  2.826468275583600E-004  2.896282041990500E-004  2.967820208427700E-004 
 3.041125367575900E-004  3.116241164155000E-004  3.193212320909600E-004  3.272084665236100E-004 
 3.352905156467400E-004  3.435721913832200E-004  3.520584245103800E-004  3.607542675957900E-004 
 3.696648980054000E-004  3.787956209861400E-004  3.881518728244900E-004  3.977392240832600E-004 
 4.075633829181200E-004  4.176301984761900E-004  4.279456643785600E-004  4.385159222887100E-004 
 4.493472655692400E-004  4.604461430288000E-004  4.718191627616100E-004  4.834730960818200E-004 
 4.954148815550400E-004  5.076516291294499E-004  5.201906243689500E-004  5.330393327908600E-004 
 5.462054043107901E-004  5.596966777972700E-004  5.735211857388600E-004  5.876871590266100E-004 
 6.022030318545700E-004  6.170774467413799E-004  6.323192596758900E-004  6.479375453898899E-004 
 6.639416027610199E-004  6.803409603492100E-004  6.971453820698400E-004  7.143648730069600E-004 
 7.320096853702300E-004  7.500903245988800E-004  7.686175556164700E-004  7.876024092402000E-004 
 8.070561887484300E-004  8.269904766105200E-004  8.474171413828000E-004  8.683483447749500E-004 
 8.897965488908900E-004  9.117745236485000E-004  9.342953543826200E-004  9.573724496358700E-004 
 9.810195491418701E-004  1.005250732005700E-003  1.030080425086200E-003  1.055523411585800E-003 
 1.081594839852000E-003  1.108310232396400E-003  1.135685495136600E-003  1.163736926866400E-003 
 1.192481228960000E-003  1.221935515315300E-003  1.252117322543600E-003  1.283044620410500E-003 
 1.314735822534600E-003  1.347209797351200E-003  1.380485879345800E-003  1.414583880565600E-003 
 1.449524102415600E-003  1.485327347745200E-003  1.522014933234600E-003  1.559608702085400E-003 
 1.598131037027000E-003  1.637604873641500E-003  1.678053714020500E-003  1.719501640756800E-003 
 1.761973331283500E-003  1.805494072566200E-003  1.850089776158600E-003  1.895786993629700E-003 
 1.942612932372300E-003  1.990595471801900E-003  2.039763179955400E-003  2.090145330500300E-003 
 2.141771920163700E-003  2.194673686591700E-003  2.248882126650500E-003  2.304429515178800E-003 
 2.361348924203700E-003  2.419674242631600E-003  2.479440196424600E-003  2.540682369276200E-003 
 2.603437223797400E-003  2.667742123225200E-003  2.733635353668800E-003  2.801156146904400E-003 
 2.870344703733000E-003  2.941242217915200E-003  3.013890900697700E-003  3.088334005944900E-003 
 3.164615855891800E-003  3.242781867532300E-003  3.322878579660300E-003  3.404953680577900E-003 
 3.489056036488200E-003  3.575235720589500E-003  3.663544042888000E-003  3.754033580747400E-003 
 3.846758210191800E-003  3.941773137983600E-003  4.039134934491800E-003  4.138901567373700E-003 
 4.241132436087800E-003  4.345888407259200E-003  4.453231850918500E-003  4.563226677636200E-003 
 4.675938376573800E-003  4.791434054475200E-003  4.909782475620700E-003  5.031054102768600E-003 
 5.155321139106900E-003  5.282657571242900E-003  5.413139213252600E-003  5.546843751819900E-003 
 5.683850792489900E-003  5.824241907064400E-003  5.968100682168900E-003  6.115512769018400E-003 
 6.266565934413200E-003  6.421350112993200E-003  6.579957460784100E-003  6.742482410065500E-003 
 6.909021725594100E-003  7.079674562216300E-003  7.254542523903000E-003  7.433729724243400E-003 
 7.617342848432200E-003  7.805491216788500E-003  7.998286849843200E-003  8.195844535034301E-003 
 8.398281895049700E-003  8.605719457857401E-003  8.818280728466500E-003  9.036092262459600E-003 
 9.259283741342300E-003  9.487988049753499E-003  9.722341354582401E-003  9.962483186040601E-003 
 1.020855652073600E-002  1.046070786679800E-002  1.071908735110800E-002  1.098384880868000E-002 
 1.125514987425500E-002  1.153315207614900E-002  1.181802093243000E-002  1.210992604946100E-002 
 1.240904122288200E-002  1.271554454108700E-002  1.302961849125200E-002  1.335145006798600E-002 
 1.368123088466600E-002  1.401915728751700E-002  1.436543047251800E-002  1.472025660519000E-002 
 1.508384694333800E-002  1.545641796283800E-002  1.583819148652000E-002  1.622939481623700E-002 
 1.663026086819800E-002  1.704102831164300E-002  1.746194171094100E-002  1.789325167120100E-002 
 1.833521498747900E-002  1.878809479767000E-002  1.925216073917300E-002  1.972768910943000E-002 
 2.021496303043300E-002  2.071427261728500E-002  2.122591515093200E-002  2.175019525516000E-002 
 2.228742507796200E-002  2.283792447738800E-002  2.340202121197900E-002  2.398005113591500E-002 
 2.457235839897200E-002  2.517929565142700E-002  2.580122425401700E-002  2.643851449309100E-002 
 2.709154580107100E-002  2.776070698235700E-002  2.844639644482200E-002  2.914902243700900E-002 
 2.986900329120300E-002  3.060676767249500E-002  3.136275483400600E-002  3.213741487840600E-002 
 3.293120902590300E-002  3.374460988884200E-002  3.457810175309700E-002  3.543218086639800E-002 
 3.630735573379800E-002  3.720414742042300E-002  3.812308986170800E-002  3.906473018129200E-002 
 4.002962901677000E-002  4.101836085348400E-002  4.203151436656500E-002  4.306969277141900E-002 
 4.413351418287300E-002  4.522361198319000E-002  4.634063519917500E-002  4.748524888859500E-002 
 4.865813453614300E-002  4.985999045918600E-002  5.109153222352700E-002  5.235349306944900E-002 
 5.364662434826400E-002  5.497169596966600E-002  5.632949686011700E-002  5.772083543256200E-002 
 5.914654006774600E-002  6.060745960741900E-002  6.210446385972200E-002  6.363844411705800E-002 
 6.521031368674900E-002  6.682100843481199E-002  6.847148734315101E-002  7.016273308052701E-002 
 7.189575258761600E-002  7.367157767653000E-002  7.549126564514100E-002  7.735589990657600E-002 
 7.926659063426800E-002  8.122447542293500E-002  8.323071996588099E-002  8.528651874903800E-002 
 8.739309576213999E-002  8.955170522746400E-002  9.176363234658300E-002  9.403019406554300E-002 
 9.635273985896201E-002  9.873265253347900E-002  1.011713490510600E-001  1.036702813726200E-001 
 1.062309373225200E-001  1.088548414743900E-001  1.115435560588000E-001  1.142986818934600E-001 
 1.171218593362200E-001  1.200147692618300E-001  1.229791340626000E-001  1.260167186739400E-001 
 1.291293316251900E-001  1.323188261163300E-001  1.355871011214000E-001  1.389361025191000E-001 
 1.423678242513300E-001  1.458843095103300E-001  1.494876519552400E-001  1.531799969585300E-001 
 1.569635428834100E-001  1.608405423926300E-001  1.648133037897300E-001  1.688841923933300E-001 
 1.730556319454500E-001  1.773301060545000E-001  1.817101596740500E-001  1.861984006180000E-001 
 1.907975011132600E-001  1.955101993907600E-001  2.003393013157100E-001  2.052876820582100E-001 
 2.103582878050400E-001  2.155541375138300E-001  2.208783247104200E-001  2.263340193307700E-001 
 2.319244696082400E-001  2.376530040075600E-001  2.435230332065500E-001  2.495380521267500E-001 
 2.557016420142800E-001  2.620174725720300E-001  2.684893041445600E-001  2.751209899569300E-001 
 2.819164784088700E-001  2.888798154255700E-001  2.960151468665800E-001  3.033267209941800E-001 
 3.108188910027400E-001  3.184961176105100E-001  3.263629717154900E-001  3.344241371168600E-001 
 3.426844133036500E-001  3.511487183122500E-001  3.598220916545600E-001  3.687096973184300E-001 
 3.778168268421900E-001  3.871489024651900E-001  3.967114803560900E-001  4.065102539208800E-001 
 4.165510571927300E-001  4.268398683053900E-001  4.373828130525300E-001  4.481861685349300E-001 
 4.592563668977400E-001  4.705999991601100E-001  4.822238191393700E-001  4.941347474721100E-001 
 5.063398757346700E-001  5.188464706653200E-001  5.316619784907500E-001  5.447940293594700E-001 
 5.582504418846500E-001  5.720392277992000E-001  5.861685967258400E-001  6.006469610649700E-001 
 6.154829410032800E-001  6.306853696460600E-001  6.462632982763100E-001  6.622260017437400E-001 
 6.785829839868101E-001  6.953439836912800E-001  7.125189800884600E-001  7.301181988966400E-001 
 7.481521184093900E-001  7.666314757341000E-001  7.855672731847400E-001  8.049707848324000E-001 
 8.248535632177600E-001  8.452274462292400E-001  8.661045641511000E-001  8.874973468856300E-001 
 9.094185313537100E-001  9.318811690781400E-001  9.548986339543700E-001  9.784846302130500E-001 
 1.002653200579300E+000  1.027418734633600E+000  1.052795977379100E+000  1.078800038020300E+000 
 1.105446398959400E+000  1.132750925013700E+000  1.160729872861600E+000  1.189399900721200E+000 
 1.218778078269100E+000  1.248881896802300E+000  1.279729279653300E+000  1.311338592860800E+000 
 1.343728656104400E+000  1.376918753910200E+000  1.410928647131800E+000  1.445778584715900E+000 
 1.481489315758400E+000  1.518082101857700E+000  1.555578729773500E+000  1.594001524398900E+000 
 1.633373362051600E+000  1.673717684094300E+000  1.715058510891400E+000  1.757420456110400E+000 
 1.800828741376400E+000  1.845309211288300E+000  1.890888348807200E+000  1.937593291022700E+000 
 1.985451845311000E+000  2.034492505890100E+000  2.084744470785600E+000  2.136237659214000E+000 
 2.189002729396600E+000  2.243071096812700E+000  2.298474952904000E+000  2.355247284240700E+000 
 2.413421892161500E+000  2.473033412897900E+000  2.534117338196400E+000  2.596710036449900E+000 
 2.660848774350200E+000  2.726571739076600E+000  2.793918061031800E+000  2.862927837139300E+000 
 2.933642154716700E+000  3.006103115938200E+000  3.080353862901800E+000  3.156438603315500E+000 
 3.234402636817400E+000  3.314292381946800E+000  3.396155403780900E+000  3.480040442254300E+000 
 3.565997441178000E+000  3.654077577975100E+000  3.744333294151000E+000  3.836818326516600E+000 
 3.931587739181500E+000  4.028697956339300E+000  4.128206795860900E+000  4.230173503718700E+000 
 4.334658789260500E+000  4.441724861355200E+000  4.551435465430700E+000  4.663855921426800E+000 
 4.779053162686100E+000  4.897095775804400E+000  5.018054041466800E+000  5.141999976291000E+000 
 5.269007375705400E+000  5.399151857885300E+000  5.532510908775100E+000  5.669163928221900E+000 
 5.809192277248900E+000  5.952679326497000E+000  6.099710505861500E+000  6.250373355356200E+000 
 6.404757577233500E+000  6.562955089391200E+000  6.725060080099200E+000  6.891169064077600E+000 
 7.061380939960300E+000  7.235797049177400E+000  7.414521236292000E+000  7.597659910828500E+000 
 7.785322110625900E+000  7.977619566758400E+000  8.174666770057300E+000  8.376581039277699E+000 
 8.583482590947900E+000  8.795494610944299E+000  9.012743327834601E+000  9.235358088032100E+000 
 9.463471432806500E+000  9.697219177196800E+000  9.936740490873600E+000  1.018217798099800E+001 
 1.043367777712900E+001  1.069138961822400E+001  1.095546694179400E+001  1.122606697525600E+001 
 1.150335082954500E+001  1.178748359503500E+001  1.207863443983200E+001  1.237697671049600E+001 
 1.268268803524500E+001  1.299595042971600E+001  1.331695040533000E+001  1.364587908034200E+001 
 1.398293229362600E+001  1.432831072127900E+001  1.468221999609400E+001  1.504487082999800E+001 
 1.541647913949900E+001  1.579726617424400E+001  1.618745864874800E+001  1.658728887737200E+001 
 1.699699491264300E+001  1.741682068698600E+001  1.784701615795400E+001  1.828783745705600E+001 
 1.873954704224500E+001  1.920241385418800E+001  1.967671347638700E+001  2.016272829925400E+001 
 2.066074768824500E+001  2.117106815614500E+001  2.169399353960200E+001  2.222983518003000E+001 
 2.277891210897600E+001  2.334155123806800E+001  2.391808755364800E+001  2.450886431622300E+001 
 2.511423326483400E+001  2.573455482647600E+001  2.637019833069000E+001  2.702154222945800E+001 
 2.768897432252500E+001  2.837289198829200E+001  2.907370242040200E+001  2.979182287018600E+001 
 3.052768089508000E+001  3.128171461318800E+001  3.205437296413400E+001  3.284611597634800E+001 
 3.365741504096400E+001  3.448875319247600E+001  3.534062539633000E+001  3.621353884361900E+001 
 3.710801325305700E+001  3.802458118040700E+001  3.896378833556300E+001  3.992619390745200E+001 
 4.091237089696600E+001  4.192290645812100E+001  4.295840224763600E+001  4.401947478315300E+001 
 4.510675581029700E+001  4.622089267881100E+001  4.736254872797800E+001  4.853240368155900E+001 
 4.973115405249300E+001  5.095951355759000E+001  5.221821354246200E+001  5.350800341696100E+001 
 5.482965110136000E+001  5.618394348356400E+001  5.757168688760800E+001  5.899370755373200E+001 
 6.045085213030900E+001  6.194398817792800E+001  6.347400468592200E+001  6.504181260166500E+001 
 6.664834537292600E+001  6.829455950363700E+001  6.998143512337700E+001  7.170997657092400E+001 
 7.348121299222601E+001  7.529619895313400E+001  7.715601506727600E+001
    </PP_R>
    <PP_RAB type="real" size="579" columns="4">
 1.412030487473088E-006  1.446907640513695E-006  1.482646259234373E-006  1.519267621837465E-006 
 1.556793532096850E-006  1.595246332339637E-006  1.634648916748418E-006  1.675024744992123E-006 
 1.716397856193413E-006  1.758792883241392E-006  1.802235067457446E-006  1.846750273623646E-006 
 1.892365005382154E-006  1.939106421015092E-006  1.987002349614176E-006  2.036081307649630E-006 
 2.086372515948579E-006  2.137905917092510E-006  2.190712193244707E-006  2.244822784417836E-006 
 2.300269907192955E-006  2.357086573900630E-006  2.415306612275967E-006  2.474964685599116E-006 
 2.536096313333419E-006  2.598737892272823E-006  2.662926718211878E-006  2.728701008151883E-006 
 2.796099923053046E-006  2.865163591152479E-006  2.935933131854131E-006  3.008450680210898E-006 
 3.082759412012101E-006  3.158903569488769E-006  3.236928487655017E-006  3.316880621300186E-006 
 3.398807572646355E-006  3.482758119690759E-006  3.568782245247026E-006  3.656931166704741E-006 
 3.747257366522229E-006  3.839814623475248E-006  3.934658044675246E-006  4.031844098378680E-006 
 4.131430647608584E-006  4.233476984604534E-006  4.338043866124155E-006  4.445193549617420E-006 
 4.554989830293006E-006  4.667498079101350E-006  4.782785281655161E-006  4.900920078112001E-006 
 5.021972804041417E-006  5.146015532301247E-006  5.273122115948965E-006  5.403368232212968E-006 
 5.536831427548668E-006  5.673591163809180E-006  5.813728865555241E-006  5.957327968534366E-006 
 6.104473969357068E-006  6.255254476400388E-006  6.409759261967290E-006  6.568080315738028E-006 
 6.730311899536671E-006  6.896550603455232E-006  7.066895403360539E-006  7.241447719823629E-006 
 7.420311478503361E-006  7.603593172022333E-006  7.791401923371216E-006  7.983849550878564E-006 
 8.181050634785188E-006  8.383122585464516E-006  8.590185713325356E-006  8.802363300444580E-006 
 9.019781673965413E-006  9.242570281312522E-006  9.470861767260752E-006  9.704792052912219E-006 
 9.944500416619236E-006  1.019012957690955E-005  1.044182577745941E-005  1.069973887416265E-005 
 1.096402242435444E-005  1.123483377823598E-005  1.151233417255838E-005  1.179668882662053E-005 
 1.208806704063803E-005  1.238664229654180E-005  1.269259236126645E-005  1.300609939258966E-005 
 1.332735004758652E-005  1.365653559376199E-005  1.399385202292785E-005  1.433950016789417E-005 
 1.469368582204122E-005  1.505661986184569E-005  1.542851837243323E-005  1.580960277623247E-005 
 1.620009996480540E-005  1.660024243393592E-005  1.701026842205425E-005  1.743042205207886E-005 
 1.786095347676516E-005  1.830211902764139E-005  1.875418136762408E-005  1.921740964740447E-005 
 1.969207966569529E-005  2.017847403343806E-005  2.067688234206398E-005  2.118760133591284E-005 
 2.171093508890985E-005  2.224719518560605E-005  2.279670090669057E-005  2.335977941908581E-005 
 2.393676597073708E-005  2.452800409021491E-005  2.513384579124223E-005  2.575465178228520E-005 
 2.639079168130839E-005  2.704264423583807E-005  2.771059754846348E-005  2.839504930790873E-005 
 2.909640702581407E-005  2.981508827935138E-005  3.055152095985166E-005  3.130614352756178E-005 
 3.207940527269160E-005  3.287176658292697E-005  3.368369921752588E-005  3.451568658819776E-005 
 3.536822404692697E-005  3.624181918088448E-005  3.713699211465460E-005  3.805427581988426E-005 
 3.899421643263761E-005  3.995737357852213E-005  4.094432070591297E-005  4.195564542734887E-005 
 4.299194986940456E-005  4.405385103117879E-005  4.514198115164927E-005  4.625698808609458E-005 
 4.739953569181981E-005  4.857030422340786E-005  4.976999073772586E-005  5.099930950894773E-005 
 5.225899245381978E-005  5.354978956742807E-005  5.487246936974318E-005  5.622781936317663E-005 
 5.761664650144670E-005  5.903977767003410E-005  6.049806017848393E-005  6.199236226489035E-005 
 6.352357361283504E-005  6.509260588107217E-005  6.670039324633312E-005  6.834789295951708E-005 
 7.003608591561865E-005  7.176597723773430E-005  7.353859687550621E-005  7.535500021833040E-005 
 7.721626872372466E-005  7.912351056119997E-005  8.107786127206045E-005  8.308048444548012E-005 
 8.513257241128410E-005  8.723534694984383E-005  8.939006001950350E-005  9.159799450198686E-005 
 9.386046496618445E-005  9.617881845085074E-005  9.855443526658686E-005  1.009887298176704E-004 
 1.034831514441661E-004  1.060391852848378E-004  1.086583531613732E-004  1.113422144844595E-004 
 1.140923671822253E-004  1.169104486516269E-004  1.197981367333212E-004  1.227571507106359E-004 
 1.257892523331865E-004  1.288962468658177E-004  1.320799841634034E-004  1.353423597722385E-004 
 1.386853160586140E-004  1.421108433652617E-004  1.456209811963839E-004  1.492178194319328E-004 
 1.529034995719027E-004  1.566802160113285E-004  1.605502173468076E-004  1.645158077152745E-004 
 1.685793481658414E-004  1.727432580655383E-004  1.770100165397560E-004  1.813821639482879E-004 
 1.858623033978103E-004  1.904531022917368E-004  1.951572939183433E-004  1.999776790781258E-004 
 2.049171277513567E-004  2.099785808068146E-004  2.151650517527434E-004  2.204796285310357E-004 
 2.259254753557510E-004  2.315058345970391E-004  2.372240287115857E-004  2.430834622207622E-004 
 2.490876237376199E-004  2.552400880439347E-004  2.615445182186221E-004  2.680046678186131E-004 
 2.746243831137475E-004  2.814076053766547E-004  2.883583732294610E-004  2.954808250482282E-004 
 3.027792014269026E-004  3.102578477021426E-004  3.179212165403893E-004  3.257738705889387E-004 
 3.338204851925037E-004  3.420658511767524E-004  3.505148777008019E-004  3.591725951800313E-004 
 3.680441582809734E-004  3.771348489905025E-004  3.864500797605655E-004  3.959953967306503E-004 
 4.057764830298961E-004  4.157991621607470E-004  4.260694014661276E-004  4.365933156823351E-004 
 4.473771705796725E-004  4.584273866929970E-004  4.697505431443275E-004  4.813533815599783E-004 
 4.932428100845117E-004  5.054259074936066E-004  5.179099274087002E-004  5.307023026156946E-004 
 5.438106494902912E-004  5.572427725327097E-004  5.710066690142558E-004  5.851105337389108E-004 
 5.995627639222594E-004  6.143719641911489E-004  6.295469517066641E-004  6.450967614138134E-004 
 6.610306514207505E-004  6.773581085108320E-004  6.940888537910687E-004  7.112328484797055E-004 
 7.288002998371512E-004  7.468016672431115E-004  7.652476684240255E-004  7.841492858341000E-004 
 8.035177731942114E-004  8.233646621920889E-004  8.437017693482482E-004  8.645412030511379E-004 
 8.858953707665002E-004  9.077769864244374E-004  9.301990779891344E-004  9.531749952154615E-004 
 9.767184175972854E-004  1.000843362511933E-003  1.025564193565976E-003  1.050895629147052E-003 
 1.076852751186983E-003  1.103451014141303E-003  1.130706254190598E-003  1.158634698669115E-003 
 1.187252975726235E-003  1.216578124226679E-003  1.246627603895057E-003  1.277419305711286E-003 
 1.308971562562345E-003  1.341303160157632E-003  1.374433348213532E-003  1.408381851914409E-003 
 1.443168883656688E-003  1.478815155083000E-003  1.515341889413544E-003  1.552770834082080E-003 
 1.591124273683899E-003  1.630425043243898E-003  1.670696541812002E-003  1.711962746394763E-003 
 1.754248226230713E-003  1.797578157418609E-003  1.841978337906865E-003  1.887475202853165E-003 
 1.934095840363628E-003  1.981868007620624E-003  2.030820147408841E-003  2.080981405049833E-003 
 2.132381645754583E-003  2.185051472404700E-003  2.239022243773112E-003  2.294326093194293E-003 
 2.350995947696194E-003  2.409065547604306E-003  2.468569466630231E-003  2.529543132455969E-003 
 2.592022847827541E-003  2.656045812168973E-003  2.721650143729365E-003  2.788874902279667E-003 
 2.857760112365769E-003  2.928346787141334E-003  3.000676952783793E-003  3.074793673517400E-003 
 3.150741077253370E-003  3.228564381861475E-003  3.308309922093371E-003  3.390025177169113E-003 
 3.473758799045391E-003  3.559560641381620E-003  3.647481789223865E-003  3.737574589417586E-003 
 3.829892681776306E-003  3.924491031016174E-003  4.021425959482324E-003  4.120755180681383E-003 
 4.222537833644329E-003  4.326834518135280E-003  4.433707330733315E-003  4.543219901802452E-003 
 4.655437433376860E-003  4.770426737981329E-003  4.888256278409425E-003  5.008996208486185E-003 
 5.132718414835605E-003  5.259496559682179E-003  5.389406124706289E-003  5.522524455986598E-003 
 5.658930810049467E-003  5.798706401057603E-003  5.941934449163805E-003  6.088700230058108E-003 
 6.239091125740524E-003  6.393196676546250E-003  6.551108634456963E-003  6.712921017728035E-003 
 6.878730166866011E-003  7.048634801987624E-003  7.222736081596679E-003  7.401137662812007E-003 
 7.583945763083555E-003  7.771269223431776E-003  7.963219573250550E-003  8.159911096709774E-003 
 8.361460900798593E-003  8.567988985048314E-003  8.779618312978944E-003  8.996474885309583E-003 
 9.218687814976602E-003  9.446389404006474E-003  9.679715222285673E-003  9.918804188275997E-003 
 1.016379865172652E-002  1.041484447842415E-002  1.067209113704115E-002  1.093569178812613E-002 
 1.120580337529278E-002  1.148258671866241E-002  1.176620661061350E-002  1.205683191389559E-002 
 1.235463566216878E-002  1.265979516302444E-002  1.297249210355106E-002  1.329291265850874E-002 
 1.362124760117393E-002  1.395769241692291E-002  1.430244741962089E-002  1.465571787088557E-002 
 1.501771410229658E-002  1.538865164062328E-002  1.576875133614648E-002  1.615823949414943E-002 
 1.655734800965491E-002  1.696631450549328E-002  1.738538247377910E-002  1.781480142088132E-002 
 1.825482701597716E-002  1.870572124327175E-002  1.916775255798075E-002  1.964119604616280E-002 
 2.012633358850302E-002  2.062345402813907E-002  2.113285334263406E-002  2.165483482019706E-002 
 2.218970924025605E-002  2.273779505849021E-002  2.329941859643492E-002  2.387491423576703E-002 
 2.446462461739018E-002  2.506890084543950E-002  2.568810269632308E-002  2.632259883292071E-002 
 2.697276702409381E-002  2.763899436958900E-002  2.832167753051935E-002  2.902122296552119E-002 
 2.973804717277167E-002  3.047257693793799E-002  3.122524958830464E-002  3.199651325313732E-002 
 3.278682713048831E-002  3.359666176061189E-002  3.442649930609944E-002  3.527683383895874E-002 
 3.614817163478144E-002  3.704103147416220E-002  3.795594495157192E-002  3.889345679187562E-002 
 3.985412517463609E-002  4.083852206645023E-002  4.184723356149084E-002  4.288086023045923E-002 
 4.394001747815336E-002  4.502533590986138E-002  4.613746170683688E-002  4.727705701099483E-002 
 4.844480031916736E-002  4.964138688704880E-002  5.086752914315926E-002  5.212395711299520E-002 
 5.341141885368651E-002  5.473068089937267E-002  5.608252871758782E-002  5.746776717691154E-002 
 5.888722102618258E-002  6.034173538552956E-002  6.183217624955023E-002  6.335943100291531E-002 
 6.492440894868702E-002  6.652804184971838E-002  6.817128448340662E-002  6.985511521014712E-002 
 7.158053655583919E-002  7.334857580876836E-002  7.516028563124313E-002  7.701674468633547E-002 
 7.891905828008813E-002  8.086835901960655E-002  8.286580748739118E-002  8.491259293233003E-002 
 8.700993397775905E-002  8.915907934700977E-002  9.136130860687884E-002  9.361793292947046E-002 
 9.593029587282692E-002  9.829977418088616E-002  1.007277786031545E-001  1.032157547346533E-001 
 1.057651838765980E-001  1.083775839183491E-001  1.110545102411330E-001  1.137975566440880E-001 
 1.166083562931984E-001  1.194885826936393E-001  1.224399506861729E-001  1.254642174681207E-001 
 1.285631836395836E-001  1.317386942754807E-001  1.349926400240859E-001  1.383269582326822E-001 
 1.417436341010274E-001  1.452447018633241E-001  1.488322459993488E-001  1.525084024755307E-001 
 1.562753600166764E-001  1.601353614090891E-001  1.640907048358945E-001  1.681437452453399E-001 
 1.722968957528994E-001  1.765526290779980E-001  1.809134790162225E-001  1.853820419479253E-001 
 1.899609783840376E-001  1.946530145501242E-001  1.994609440095115E-001  2.043876293265461E-001 
 2.094360037709128E-001  2.146090730640540E-001  2.199099171687356E-001  2.253416921228029E-001 
 2.309076319182364E-001  2.366110504266163E-001  2.424553433721547E-001  2.484439903534426E-001 
 2.545805569151811E-001  2.608686966709839E-001  2.673121534787540E-001  2.739147636696717E-001 
 2.806804583323169E-001  2.876132656531309E-001  2.947173133147543E-001  3.019968309536324E-001 
 3.094561526781810E-001  3.170997196493430E-001  3.249320827246822E-001  3.329579051679903E-001 
 3.411819654256288E-001  3.496091599716525E-001  3.582445062229379E-001  3.670931455266561E-001 
 3.761603462211657E-001  3.854515067728133E-001  3.949721589901060E-001  4.047279713171597E-001 
 4.147247522086914E-001  4.249684535882636E-001  4.354651743918801E-001  4.462211641993727E-001 
 4.572428269550903E-001  4.685367247808700E-001  4.801095818829711E-001  4.919682885554864E-001 
 5.041199052827928E-001  5.165716669432864E-001  5.293309871167909E-001  5.424054624985715E-001 
 5.558028774222682E-001  5.695312084946053E-001  5.835986293444152E-001  5.980135154892197E-001 
 6.127844493218105E-001  6.279202252200740E-001  6.434298547830107E-001  6.593225721961501E-001 
 6.756078397293800E-001  6.922953533707111E-001  7.093950485989480E-001  7.269171062993437E-001 
 7.448719588249474E-001  7.632702962079120E-001  7.821230725242535E-001  8.014415124156000E-001 
 8.212371177722703E-001  8.415216745812499E-001  8.623072599434030E-001  8.836062492639964E-001 
 9.054313236208322E-001  9.277954773142543E-001  9.507120256039151E-001  9.741946126363463E-001 
 9.982572195684626E-001  1.022914172891802E+000  1.048180152962215E+000  1.074070202740391E+000 
 1.100599736748082E+000  1.127784550245751E+000  1.155640828636830E+000  1.184185157104159E+000 
 1.213434530484619E+000  1.243406363387600E+000  1.274118500563262E+000  1.305589227527179E+000 