<UPF version="2.0.1">
  <PP_INFO>
    Generated using FHI98PP, converted with fhi2upf.x v.5.0.1
    Author: Abinit web site
    Generation date: 10-Jul-2012, PG
    Pseudopotential type: SL
    Element: Ir
    Functional: SLA-PW

    Suggested minimum cutoff for wavefunctions:   0. Ry
    Suggested minimum cutoff for charge density:   0. Ry
    The Pseudo was generated with a Non-Relativistic Calculation
    L component and cutoff radius for Local Potential:  1   0.0000

    Valence configuration: 
    nl pn  l   occ       Rcut    Rcut US       E pseu
    6s  6  0  2.00      0.000      0.000     0.000000
    6p  6  1  0.00      0.000      0.000     0.000000
    5d  5  2  7.00      0.000      0.000     0.000000
    5f  5  3  0.00      0.000      0.000     0.000000

    Generation configuration: not available.
    Comment:
    iridium, fhi98PP : Trouiller-Martins-type, LDA Ceperley/Alder Perdew/Wang (1992)
  </PP_INFO>
  <!--                               -->
  <!-- END OF HUMAN READABLE SECTION -->
  <!--                               -->
  <PP_HEADER generated="Generated using FHI98PP, converted with fhi2upf.x v.5.0.1"
             author="Abinit web site"
             date="10-Jul-2012, PG"
             comment="iridium, fhi98PP : Trouiller-Martins-type, LDA Ceperley/Alder Perdew/Wang (1992)"
             element="Ir"
             pseudo_type="SL"
             relativistic="no"
             is_ultrasoft="F"
             is_paw="F"
             is_coulomb="F"
             has_so="F"
             has_wfc="F"
             has_gipaw="F"
             paw_as_gipaw="F"
             core_correction="F"
             functional="SLA-PW"
             z_valence="9.000000000000000E+000"
             total_psenergy="0.000000000000000E+000"
             wfc_cutoff="0.000000000000000E+000"
             rho_cutoff="0.000000000000000E+000"
             l_max="3"
             l_max_rho="0"
             l_local="1"
             mesh_size="565"
             number_of_wfc="4"
             number_of_proj="3"/>
  <PP_MESH dx="2.439988682353512E-002" mesh="565" xmin="-5.075173815233829E+000" rmax="7.690392622009000E+001"
zmesh="7.700000000000000E+001">
    <PP_R type="real" size="565" columns="4">
 8.116883116883101E-005  8.317370129870099E-005  8.522809172077899E-005  8.733322558628199E-005 
 8.949035625826400E-005  9.170076805784300E-005  9.396577702887100E-005  9.628673172148500E-005 
 9.866501399500500E-005  1.011020398406800E-004  1.035992602247500E-004  1.061581619523000E-004 
 1.087802685525200E-004  1.114671411857700E-004  1.142203795730600E-004  1.170416229485100E-004 
 1.199325510353400E-004  1.228948850459100E-004  1.259303887065400E-004  1.290408693076000E-004 
 1.322281787794900E-004  1.354942147953500E-004  1.388409219007900E-004  1.422702926717400E-004 
 1.457843689007300E-004  1.493852428125800E-004  1.530750583100500E-004  1.568560122503100E-004 
 1.607303557528900E-004  1.647003955399900E-004  1.687684953098300E-004  1.729370771439800E-004 
 1.772086229494400E-004  1.815856759362900E-004  1.860708421319100E-004  1.906667919325700E-004 
 1.953762616933100E-004  2.002020553571300E-004  2.051470461244500E-004  2.102141781637300E-004 
 2.154064683643700E-004  2.207270081329700E-004  2.261789652338600E-004  2.317655856751300E-004 
 2.374901956413100E-004  2.433562034736500E-004  2.493671016994500E-004  2.555264691114200E-004 
 2.618379728984800E-004  2.683053708290700E-004  2.749325134885500E-004  2.817233465717100E-004 
 2.886819132320300E-004  2.958123564888700E-004  3.031189216941400E-004  3.106059590599900E-004 
 3.182779262487700E-004  3.261393910271100E-004  3.341950339854800E-004  3.424496513249200E-004 
 3.509081577126500E-004  3.595755892081500E-004  3.684571062615900E-004  3.775579967862500E-004 
 3.868836793068700E-004  3.964397061857500E-004  4.062317669285400E-004  4.162656915716800E-004 
 4.265474541535000E-004  4.370831762710900E-004  4.478791307249800E-004  4.589417452538900E-004 
 4.702776063616600E-004  4.818934632388000E-004  4.937962317807900E-004  5.059929987057800E-004 
 5.184910257738100E-004  5.312977541104300E-004  5.444208086369500E-004  5.578680026102900E-004 
 5.716473422747600E-004  5.857670316289500E-004  6.002354773101799E-004  6.150612935997400E-004 
 6.302533075516600E-004  6.458205642481800E-004  6.617723321851100E-004  6.781181087900800E-004 
 6.948676260772000E-004  7.120308564413100E-004  7.296180185954100E-004  7.476395836547100E-004 
 7.661062813709800E-004  7.850291065208500E-004  8.044193254519100E-004  8.242884827905700E-004 
 8.446484083155000E-004  8.655112240008900E-004  8.868893512337200E-004  9.087955182091900E-004 
 9.312427675089600E-004  9.542444638664300E-004  9.778143021239301E-004  1.001966315386400E-003 
 1.026714883376400E-003  1.052074740995800E-003  1.078060987098400E-003  1.104689093479800E-003 
 1.131974914088700E-003  1.159934694466700E-003  1.188585081420000E-003  1.217943132931100E-003 
 1.248026328314500E-003  1.278852578623900E-003  1.310440237315900E-003  1.342808111177600E-003 
 1.375975471523700E-003  1.409962065670300E-003  1.444788128692400E-003  1.480474395471100E-003 
 1.517042113039200E-003  1.554513053231300E-003  1.592909525646100E-003  1.632254390929500E-003 
 1.672571074385500E-003  1.713883579922800E-003  1.756216504346900E-003  1.799595052004300E-003 
 1.844045049788800E-003  1.889592962518600E-003  1.936265908692800E-003  1.984091676637500E-003 
 2.033098741050400E-003  2.083316279954400E-003  2.134774192069200E-003  2.187503114613400E-003 
 2.241534441544300E-003  2.296900342250400E-003  2.353633780704000E-003  2.411768535087400E-003 
 2.471339217904100E-003  2.532381296586300E-003  2.594931114612000E-003  2.659025913142900E-003 
 2.724703853197500E-003  2.792004038371500E-003  2.860966538119300E-003  2.931632411610800E-003 
 3.004043732177600E-003  3.078243612362400E-003  3.154276229587800E-003  3.232186852458600E-003 
 3.312021867714300E-003  3.393828807846900E-003  3.477656379400700E-003  3.563554491971900E-003 
 3.651574287923600E-003  3.741768172835300E-003  3.834189846704300E-003  3.928894335917900E-003 
 4.025938026015100E-003  4.125378695257700E-003  4.227275549030500E-003  4.331689255091600E-003 
 4.438681979692300E-003  4.548317424590700E-003  4.660660864978100E-003  4.775779188343100E-003 
 4.893740934295200E-003  5.014616335372300E-003  5.138477358856000E-003  5.265397749619700E-003 
 5.395453074035300E-003  5.528720764964000E-003  5.665280167858600E-003  5.805212588004700E-003 
 5.948601338928400E-003  6.095531791999900E-003  6.246091427262300E-003  6.400369885515700E-003 
 6.558459021688000E-003  6.720452959523600E-003  6.886448147623900E-003  7.056543416870200E-003 
 7.230840039266900E-003  7.409441788236800E-003  7.592455000406200E-003  7.779988638916300E-003 
 7.972154358297500E-003  8.169066570947400E-003  8.370842515249799E-003  8.577602325376500E-003 
 8.789469102813301E-003  9.006568989652800E-003  9.229031243697200E-003  9.456988315416500E-003 
 9.690575926807299E-003  9.929933152199500E-003  1.017520250105900E-002  1.042653000283500E-002 
 1.068406529390500E-002  1.094796170666400E-002  1.121837636081900E-002  1.149547025693100E-002 
 1.177940837227700E-002  1.207035975907300E-002  1.236849764512200E-002  1.267399953695600E-002 
 1.298704732551900E-002  1.330782739445900E-002  1.363653073110300E-002  1.397335304016100E-002 
 1.431849486025300E-002  1.467216168330100E-002  1.503456407687900E-002  1.540591780957700E-002 
 1.578644397947400E-002  1.617636914576700E-002  1.657592546366700E-002  1.698535082262000E-002 
 1.740488898793900E-002  1.783478974594100E-002  1.827530905266600E-002  1.872670918626600E-002 
 1.918925890316700E-002  1.966323359807500E-002  2.014891546794800E-002  2.064659368000600E-002 
 2.115656454390200E-002  2.167913168813700E-002  2.221460624083400E-002  2.276330701498200E-002 
 2.332556069825200E-002  2.390170204749900E-002  2.449207408807200E-002  2.509702831804800E-002 
 2.571692491750400E-002  2.635213296296600E-002  2.700303064715100E-002  2.767000550413600E-002 
 2.835345464008800E-002  2.905378496969800E-002  2.977141345845000E-002  3.050676737087300E-002 
 3.126028452493400E-002  3.203241355270000E-002  3.282361416745200E-002  3.363435743738800E-002 
 3.446512606609100E-002  3.531641467992400E-002  3.618873012251800E-002  3.708259175654400E-002 
 3.799853177293000E-002  3.893709550772200E-002  3.989884176676300E-002  4.088434315840200E-002 
 4.189418643441400E-002  4.292897283934400E-002  4.398931846847600E-002  4.507585463464700E-002 
 4.618922824412300E-002  4.733010218175300E-002  4.849915570564200E-002  4.969708485157200E-002 
 5.092460284740500E-002  5.218244053773600E-002  5.347134681901800E-002  5.479208908544800E-002 
 5.614545368585900E-002  5.753224639189900E-002  5.895329287777900E-002  6.040943921186100E-002 
 6.190155236039300E-002  6.343052070369500E-002  6.499725456507600E-002  6.660268675283400E-002 
 6.824777311562900E-002  6.993349311158500E-002  7.166085039144100E-002  7.343087339611000E-002 
 7.524461596899400E-002  7.710315798342800E-002  7.900760598561800E-002  8.095909385346300E-002 
 8.295878347164400E-002  8.500786542339300E-002  8.710755969935099E-002  8.925911642392501E-002 
 9.146381659959600E-002  9.372297286960600E-002  9.603793029948500E-002  9.841006717788200E-002 
 1.008407958371800E-001  1.033315634943500E-001  1.058838531126600E-001  1.084991842845500E-001 
 1.111791141363800E-001  1.139252382555400E-001  1.167391916404600E-001  1.196226496739800E-001 
 1.225773291209200E-001  1.256049891502100E-001  1.287074323822200E-001  1.318865059620600E-001 
 1.351441026593200E-001  1.384821619950100E-001  1.419026713962900E-001  1.454076673797700E-001 
 1.489992367640500E-001  1.526795179121300E-001  1.564507020045600E-001  1.603150343440700E-001 
 1.642748156923700E-001  1.683324036399700E-001  1.724902140098800E-001  1.767507222959200E-001 
 1.811164651366300E-001  1.855900418255000E-001  1.901741158585900E-001  1.948714165203000E-001 
 1.996847405083500E-001  2.046169535989100E-001  2.096709923528000E-001  2.148498658639200E-001 
 2.201566575507500E-001  2.255945269922600E-001  2.311667118089700E-001  2.368765295906500E-001 
 2.427273798715400E-001  2.487227461543600E-001  2.548661979843800E-001  2.611613930745900E-001 
 2.676120794835300E-001  2.742220978467800E-001  2.809953836635900E-001  2.879359696400800E-001 
 2.950479880901900E-001  3.023356733960200E-001  3.098033645289000E-001  3.174555076327700E-001 
 3.252966586713000E-001  3.333314861404800E-001  3.415647738481500E-001  3.500014237622000E-001 
 3.586464589291200E-001  3.675050264646700E-001  3.765824006183500E-001  3.858839859136200E-001 
 3.954153203656900E-001  4.051820787787200E-001  4.151900761245500E-001  4.254452710048300E-001 
 4.359537691986500E-001  4.467218272978600E-001  4.577558564321100E-001  4.690624260859900E-001 
 4.806482680103100E-001  4.925202802301700E-001  5.046855311518500E-001  5.171512637713001E-001 
 5.299248999864500E-001  5.430140450161201E-001  5.564264919280200E-001  5.701702262786400E-001 
 5.842534308677200E-001  5.986844906101501E-001  6.134719975282200E-001  6.286247558671700E-001 
 6.441517873370900E-001  6.600623364843200E-001  6.763658761954801E-001  6.930721133375100E-001 
 7.101909945369400E-001  7.277327121020100E-001  7.457077100909300E-001  7.641266905301700E-001 
 7.830006197862700E-001  8.023407350949900E-001  8.221585512518300E-001  8.424658674677500E-001 
 8.632747743942100E-001  8.845976613217400E-001  9.064472235563900E-001  9.288364699782300E-001 
 9.517787307866999E-001  9.752876654371300E-001  9.993772707734200E-001  1.024061889361500E+000 
 1.049356218028800E+000  1.075275316614100E+000  1.101834616934400E+000  1.129049931972700E+000 
 1.156937465292400E+000  1.185513820685200E+000  1.214796012056100E+000  1.244801473553900E+000 
 1.275548069950700E+000  1.307054107278400E+000  1.339338343728200E+000  1.372420000818300E+000 
 1.406318774838500E+000  1.441054848577000E+000  1.476648903336900E+000  1.513122131249300E+000 
 1.550496247891200E+000  1.588793505214100E+000  1.628036704792900E+000  1.668249211401200E+000 
 1.709454966922800E+000  1.751678504605800E+000  1.794944963669600E+000  1.839280104272200E+000 
 1.884710322847800E+000  1.931262667822100E+000  1.978964855717300E+000  2.027845287653500E+000 
 2.077933066258600E+000  2.129258012995200E+000  2.181850685916100E+000  2.235742397858300E+000 
 2.290965235085400E+000  2.347552076392000E+000  2.405536612678900E+000  2.464953367012000E+000 
 2.525837715177200E+000  2.588225906742100E+000  2.652155086638600E+000  2.717663317278600E+000 
 2.784789601215400E+000  2.853573904365400E+000  2.924057179803200E+000  2.996281392144400E+000 
 3.070289542530300E+000  3.146125694230800E+000  3.223834998878300E+000  3.303463723350600E+000 
 3.385059277317400E+000  3.468670241467100E+000  3.554346396431400E+000  3.642138752423200E+000 
 3.732099579608100E+000  3.824282439224400E+000  3.918742215473200E+000  4.015535148195400E+000 
 4.114718866355900E+000  4.216352422354800E+000  4.320496327187000E+000  4.427212586468500E+000 
 4.536564737354300E+000  4.648617886366900E+000  4.763438748160200E+000  4.881095685239800E+000 
 5.001658748665200E+000  5.125199719757200E+000  5.251792152835200E+000  5.381511419010300E+000 
 5.514434751059800E+000  5.650641289411000E+000  5.790212129259400E+000  5.933230368852100E+000 
 6.079781158962800E+000  6.229951753589200E+000  6.383831561902800E+000  6.541512201481800E+000 
 6.703087552858400E+000  6.868653815414000E+000  7.038309564654800E+000  7.212155810901700E+000 
 7.390296059431000E+000  7.572836372098900E+000  7.759885430489800E+000  7.951554600622900E+000 
 8.147957999258301E+000  8.349212561839900E+000  8.555438112117400E+000  8.766757433486699E+000 
 8.983296342093800E+000  9.205183761743500E+000  9.432551800658601E+000  9.665535830134900E+000 
 9.904274565139200E+000  1.014891014689800E+001  1.039958822752700E+001  1.065645805674600E+001 
 1.091967257074800E+001  1.118938848324600E+001  1.146576637878200E+001  1.174897080833800E+001 
 1.203917038730400E+001  1.233653789587000E+001  1.264125038189800E+001  1.295348926633100E+001 
 1.327344045120900E+001  1.360129443035400E+001  1.393724640278400E+001  1.428149638893300E+001 
 1.463424934973900E+001  1.499571530867800E+001  1.536610947680200E+001  1.574565238087900E+001 
 1.613456999468700E+001  1.653309387355600E+001  1.694146129223200E+001  1.735991538615100E+001 
 1.778870529618800E+001  1.822808631700400E+001  1.867832004903400E+001  1.913967455424500E+001 
 1.961242451573500E+001  2.009685140127400E+001  2.059324363088500E+001  2.110189674856800E+001 
 2.162311359825800E+001  2.215720450413500E+001  2.270448745538700E+001  2.326528829553500E+001 
 2.383994091643500E+001  2.442878745707100E+001  2.503217850726000E+001  2.565047331639000E+001 
 2.628404000730500E+001  2.693325579548500E+001  2.759850721363300E+001  2.828019034181000E+001 
 2.897871104325300E+001  2.969448520602100E+001  3.042793899061000E+001  3.117950908367800E+001 
 3.194964295804500E+001  3.273879913910900E+001  3.354744747784500E+001  3.437606943054700E+001 
 3.522515834548200E+001  3.609521975661500E+001  3.698677168460400E+001  3.790034494521300E+001 
 3.883648346536000E+001  3.979574460695400E+001  4.077869949874600E+001  4.178593337636500E+001 
 4.281804593076200E+001  4.387565166525100E+001  4.495938026138300E+001  4.606987695383900E+001 
 4.720780291459900E+001  4.837383564659000E+001  4.956866938706000E+001  5.079301552092100E+001 
 5.204760300428700E+001  5.333317879849300E+001  5.465050831481600E+001  5.600037587019200E+001 
 5.738358515418600E+001  5.880095970749400E+001  6.025334341226900E+001  6.174160099455200E+001 
 6.326661853911800E+001  6.482930401703400E+001  6.643058782625501E+001  6.807142334556301E+001 
 6.975278750219900E+001  7.147568135350301E+001  7.324113068293499E+001  7.505018661080300E+001 
 7.690392622009000E+001
    </PP_R>
    <PP_RAB type="real" size="565" columns="4">
 1.980510294118107E-006  2.029428898382820E-006  2.079555792172878E-006  2.130920820239542E-006 
 2.183554564499480E-006  2.237488362242614E-006  2.292754324789989E-006  2.349385356612323E-006 
 2.407415174920631E-006  2.466878329741131E-006  2.527810224485864E-006  2.590247137030632E-006 
 2.654226241315245E-006  2.719785629475799E-006  2.786964334523887E-006  2.855802353586515E-006 
 2.926340671720146E-006  2.998621286311563E-006  3.072687232083361E-006  3.148582606716027E-006 
 3.226352597101724E-006  3.306043506250298E-006  3.387702780854555E-006  3.471379039541674E-006 
 3.557122101818305E-006  3.644983017733265E-006  3.735014098271260E-006  3.827268946498603E-006 
 3.921802489477054E-006  4.018671010967224E-006  4.117932184938170E-006  4.219645109906074E-006 
 4.323870344120845E-006  4.430669941620601E-006  4.540107489178474E-006  4.652248144161228E-006 
 4.767158673322144E-006  4.884907492553086E-006  5.005564707619119E-006  5.129202155897460E-006 
 5.255893449148027E-006  5.385714017341985E-006  5.518741153570469E-006  5.655054060063505E-006 
 5.794733895347177E-006  5.937863822562245E-006  6.084529058979552E-006  6.234816926736192E-006 
 6.388816904826768E-006  6.546620682375930E-006  6.708322213230663E-006  6.874017771897286E-006 
 7.043806010863117E-006  7.217788019331654E-006  7.396067383409021E-006  7.578750247779339E-006 
 7.765945378899446E-006  7.957764229758151E-006  8.154321006233185E-006  8.355732735087112E-006 
 8.562119333643873E-006  8.773603681184816E-006  8.990311692110050E-006  9.212372390905136E-006 
 9.439917988960484E-006  9.673083963287817E-006  9.912009137181074E-006  1.015683576286957E-005 
 1.040770960621244E-005  1.066478003348585E-005  1.092820010031280E-005  1.119812664279060E-005 
 1.147472037086750E-005  1.175814596402810E-005  1.204857216933939E-005  1.234617190192218E-005 
 1.265112234789960E-005  1.296360506989288E-005  1.328380611511905E-005  1.361191612616267E-005 
 1.394813045447879E-005  1.429264927670450E-005  1.464567771383897E-005  1.500742595337076E-005 
 1.537810937441918E-005  1.575794867596718E-005  1.614717000826357E-005  1.654600510746763E-005 
 1.695469143362220E-005  1.737347231203275E-005  1.780259707813995E-005  1.824232122596984E-005 
 1.869290656025127E-005  1.915462135228964E-005  1.962774049969107E-005  2.011254569003339E-005 
 2.060932556857728E-005  2.111837591012107E-005  2.163999979510126E-005  2.217450779004019E-005 
 2.272221813245426E-005  2.328345692032584E-005  2.385855830625787E-005  2.444786469642265E-005 
 2.505172695442322E-005  2.567050461019754E-005  2.630456607406952E-005  2.695428885610073E-005 
 2.762005979084517E-005  2.830227526767927E-005  2.900134146679027E-005  2.971767460102063E-005 
 3.045170116366589E-005  3.120385818240921E-005  3.197459347951446E-005  3.276436593845840E-005 
 3.357364577713865E-005  3.440291482783312E-005  3.525266682408166E-005  3.612340769463642E-005 
 3.701565586469306E-005  3.792994256455175E-005  3.886681214589585E-005  3.982682240589805E-005 
 4.081054491932474E-005  4.181856537883153E-005  4.285148394368884E-005  4.390991559709872E-005 
 4.499449051234690E-005  4.610585442800228E-005  4.724466903237371E-005  4.841161235747304E-005 
 4.960737918270149E-005  5.083268144851557E-005  5.208824868029210E-005  5.337482842269753E-005 
 5.469318668473692E-005  5.604410839584884E-005  5.742839787322668E-005  5.884687930069566E-005 
 6.030039721942385E-005  6.178981703074285E-005  6.331602551140264E-005  6.487993134153390E-005 
 6.648246564566906E-005  6.812458254711760E-005  6.980725973603200E-005  7.153149905151085E-005 
 7.329832707808349E-005  7.510879575691247E-005  7.696398301210940E-005  7.886499339250805E-005 
 8.081295872930234E-005  8.280903880991748E-005  8.485442206852200E-005  8.695032629361455E-005 
 8.909799935306669E-005  9.129871993708711E-005  9.355379831953239E-005  9.586457713802494E-005 
 9.823243219333485E-005  1.006587732685109E-004  1.031450449682415E-004  1.056927275789582E-004 
 1.083033379501569E-004  1.109784303975258E-004  1.137195976283450E-004  1.165284716897661E-004 
 1.194067249405039E-004  1.223560710465345E-004  1.253782660013841E-004  1.284751091716172E-004 
 1.316484443681560E-004  1.349001609440501E-004  1.382321949193679E-004  1.416465301338761E-004 
 1.451451994281824E-004  1.487302858540578E-004  1.524039239146531E-004  1.561683008353455E-004 
 1.600256578659801E-004  1.639782916152675E-004  1.680285554181662E-004  1.721788607369947E-004 
 1.764316785971986E-004  1.807895410585496E-004  1.852550427226946E-004  1.898308422779468E-004 
 1.945196640822112E-004  1.993242997850407E-004  2.042476099897312E-004  2.092925259564783E-004 
 2.144620513476033E-004  2.197592640158894E-004  2.251873178370813E-004  2.307494445876567E-004 
 2.364489558689721E-004  2.422892450789371E-004  2.482737894323911E-004  2.544061520313673E-004 
 2.606899839865415E-004  2.671290265909980E-004  2.737271135478054E-004  2.804881732524306E-004 
 2.874162311317609E-004  2.945154120407339E-004  3.017899427181374E-004  3.092441543032630E-004 
 3.168824849145581E-004  3.247094822919398E-004  3.327298065045719E-004  3.409482327252288E-004 
 3.493696540735425E-004  3.579990845291529E-004  3.668416619170344E-004  3.759026509663629E-004 
 3.851874464452430E-004  3.947015763724403E-004  4.044507053088287E-004  4.144406377299672E-004 
 4.246773214819043E-004  4.351668513225051E-004  4.459154725501772E-004  4.569295847221459E-004 
 4.682157454647885E-004  4.797806743777633E-004  4.916312570349074E-004  5.037745490836619E-004 
 5.162177804460247E-004  5.289683596230567E-004  5.420338781057466E-004  5.554221148949439E-004 
 5.691410411328477E-004  5.831988248488333E-004  5.976038358225940E-004  6.123646505674272E-004 
 6.274900574364478E-004  6.429890618551196E-004  6.588708916829347E-004  6.751450027075123E-004 
 6.918210842743839E-004  7.089090650559570E-004  7.264191189628504E-004  7.443616712012153E-004 
 7.627474044798959E-004  7.815872653705526E-004  8.008924708252127E-004  8.206745148545939E-004 
 8.409451753714906E-004  8.617165212031800E-004  8.830009192768954E-004  9.048110419830301E-004 
 9.271598747199953E-004  9.500607236255946E-004  9.735272234991532E-004  9.975733459195813E-004 
 1.022213407563782E-003  1.047462078730607E-003  1.073334392075258E-003  1.099845751559508E-003 
 1.127011941623033E-003  1.154849136581126E-003  1.183373910254672E-003  1.212603245837978E-003 
 1.242554546010156E-003  1.273245643296609E-003  1.304694810686034E-003  1.336920772509985E-003 
 1.369942715590992E-003  1.403780300666072E-003  1.438453674092527E-003  1.473983479842633E-003 
 1.510390871794722E-003  1.547697526328059E-003  1.585925655228356E-003  1.625098018912511E-003 
 1.665237939979651E-003  1.706369317097147E-003  1.748516639229443E-003  1.791705000218420E-003 
 1.835960113723817E-003  1.881308328532792E-003  1.927776644247535E-003  1.975392727360455E-003 
 2.024184927726270E-003  2.074182295441094E-003  2.125414598138493E-003  2.177912338712515E-003 
 2.231706773478716E-003  2.286829930783639E-003  2.343314630073989E-003  2.401194501436809E-003 
 2.460504005622404E-003  2.521278454561073E-003  2.583554032388721E-003  2.647367816988900E-003 
 2.712757802068566E-003  2.779762919779450E-003  2.848423063898201E-003  2.918779113576502E-003 
 2.990872957681664E-003  3.064747519736481E-003  3.140446783473967E-003  3.218015819025754E-003 
 3.297500809755620E-003  3.378949079756701E-003  3.462409122026771E-003  3.547930627340628E-003 
 3.635564513835933E-003  3.725362957327875E-003  3.817379422373883E-003  3.911668694106454E-003 
 4.008286910850920E-003  4.107291597548900E-003  4.208741700008424E-003  4.312697619998534E-003 
 4.419221251212516E-003  4.528376016117349E-003  4.640226903715452E-003  4.754840508237292E-003 
 4.872285068790719E-003  4.992630509989941E-003  5.115948483586618E-003  5.242312411131349E-003 
 5.371797527686079E-003  5.504480926620084E-003  5.640441605507628E-003  5.779760513163628E-003 
 5.922520597838793E-003  6.068806856605239E-003  6.218706385963567E-003  6.372308433696765E-003 
 6.529704452009017E-003  6.690988151973805E-003  6.856255559327426E-003  7.025605071642797E-003 
 7.199137516912374E-003  7.376956213580167E-003  7.559167032055556E-003  7.745878457747477E-003 
 7.937201655653854E-003  8.133250536548479E-003  8.334141824801229E-003  8.539995127873836E-003 
 8.750933007532165E-003  8.967081052818227E-003  9.188567954822903E-003  9.415525583306949E-003 
 9.648089065214718E-003  9.886396865125460E-003  1.013059086769395E-002  1.038081646212608E-002 
 1.063722262874061E-002  1.089996202767059E-002  1.116919108975387E-002  1.144507010967096E-002 
 1.172776334137974E-002  1.201743909591195E-002  1.231426984158085E-002  1.261843230666788E-002 
 1.293010758464255E-002  1.324948124198333E-002  1.357674342866037E-002  1.391208899134823E-002 
 1.425571758943447E-002  1.460783381389344E-002  1.496864730909659E-002  1.533837289763134E-002 
 1.571723070820286E-002  1.610544630669556E-002  1.650325083047088E-002  1.691088112598355E-002 
 1.732857988979519E-002  1.775659581307331E-002  1.819518372965623E-002  1.864460476777860E-002 
 1.910512650554284E-002  1.957702313022973E-002  2.006057560154625E-002  2.055607181890444E-002 
 2.106380679283154E-002  2.158408282061431E-002  2.211720966628355E-002  2.266350474504069E-002 
 2.322329331224338E-002  2.379690865705576E-002  2.438469230088486E-002  2.498699420071615E-002 
 2.560417295747557E-002  2.623659602952494E-002  2.688463995145253E-002  2.754869055825391E-002 
 2.822914321504215E-002  2.892640305245559E-002  2.964088520785065E-002  3.037301507248491E-002 
 3.112322854477574E-002  3.189197228982969E-002  3.267970400538906E-002  3.348689269432250E-002 
 3.431401894387197E-002  3.516157521178534E-002  3.603006611951761E-002  3.692000875266917E-002 
 3.783193296886114E-002  3.876638171319170E-002  3.972391134150782E-002  4.070509195164099E-002 
 4.171050772284630E-002  4.274075726360076E-002  4.379645396801260E-002  4.487822638102155E-002 
 4.598671857263466E-002  4.712259052137775E-002  4.828651850725563E-002  4.947919551438442E-002 
 5.070133164359115E-002  5.195365453518816E-002  5.323690980220532E-002  5.455186147432155E-002 
 5.589929245273729E-002  5.728000497631968E-002  5.869482109923520E-002  6.014458318038463E-002 
 6.163015438494021E-002  6.315241919824881E-002  6.471228395244483E-002  6.631067736607087E-002 
 6.794855109701327E-002  6.962688030910899E-002  7.134666425274336E-002  7.310892685978761E-002 
 7.491471735322275E-002  7.676511087184738E-002  7.866120911038200E-002  8.060414097540858E-002 
 8.259506325750215E-002  8.463516131996147E-002  8.672564980456605E-002  8.886777335473747E-002 
 9.106280735660065E-002  9.331205869830819E-002  9.561686654815536E-002  9.797860315189509E-002 
 1.003986746497487E-001  1.028785219135953E-001  1.054196214048620E-001  1.080234860535616E-001 
 1.106916661590852E-001  1.134257503132134E-001  1.162273663459507E-001  1.190981822946967E-001 
 1.220399073973752E-001  1.250542931100896E-001  1.281431341499087E-001  1.313082695634132E-001 
 1.345515838216282E-001  1.378750079420230E-001  1.412805206381897E-001  1.447701494979528E-001 
 1.483459721905535E-001  1.520101177036606E-001  1.557647676109397E-001  1.596121573709300E-001 
 1.635545776579919E-001  1.675943757261443E-001  1.717339568065819E-001  1.759757855397026E-001 
 1.803223874425340E-001  1.847763504123635E-001  1.893403262675502E-001  1.940170323263588E-001 
 1.988092530248202E-001  2.037198415745313E-001  2.087517216614236E-001  2.139078891864607E-001 
 2.191914140493658E-001  2.246054419763847E-001  2.301531963932023E-001  2.358379803441151E-001 
 2.416631784586140E-001  2.476322589665384E-001  2.537487757630270E-001  2.600163705243514E-001 
 2.664387748763120E-001  2.730198126157697E-001  2.797634019873749E-001  2.866735580164651E-001 
 2.937543948994731E-001  3.010101284534801E-001  3.084450786262813E-001  3.160636720683534E-001 
 3.238704447684326E-001  3.318700447542162E-001  3.400672348596516E-001  3.484668955606907E-001 
 3.570740278810240E-001  3.658937563696962E-001  3.749313321520193E-001  3.841921360561739E-001 
 3.936816818167684E-001  4.034056193576482E-001  4.133697381557618E-001  4.235799706882303E-001 
 4.340423959642070E-001  4.447632431445267E-001  4.557488952501966E-001  4.670058929628730E-001 
 4.785409385190596E-001  4.903608997004889E-001  5.024728139230794E-001  5.148838924269830E-001 
 5.276015245699385E-001  5.406332822268166E-001  5.539869242978157E-001  5.676704013279703E-001 
 5.816918602407782E-001  5.960596491887267E-001  6.107823225236724E-001  6.258686458900236E-001 
 6.413276014435112E-001  6.571683931991554E-001  6.734004525111628E-001  6.900334436881950E-001 
 7.070772697473006E-001  7.245420783100504E-001  7.424382676443154E-001  7.607764928551284E-001 
 7.795676722286539E-001  7.988229937327086E-001  8.185539216779066E-001  8.387722035433322E-001 
 8.594898769708644E-001  8.807192769320350E-001  9.024730430722711E-001  9.247641272361387E-001 
 9.476058011788769E-001  9.710116644679858E-001  9.949956525803508E-001  1.019572045199085E+000 
 1.044755474715521E+000  1.070560934940975E+000  1.097003790034024E+000  1.124099783647861E+000 
 1.151865048303967E+000  1.180316114997085E+000  1.209469923037494E+000  1.239343830136535E+000 
 1.269955622740889E+000  1.301323526622592E+000  1.333466217730175E+000  1.366402833308112E+000 
 1.400152983290829E+000  1.434736761978102E+000  1.470174759998959E+000  1.506488076570932E+000 
 1.543698332062248E+000  1.581827680864180E+000  1.620898824581532E+000  1.660935025548684E+000 
 1.701960120679751E+000  1.743998535660533E+000  1.787075299491359E+000  1.831216059388784E+000 
 1.876447096055691E+000
    </PP_RAB>
  </PP_MESH>
  <PP_LOCAL type="real" size="565" columns="4">
-9.510369462179399E+000 -9.510369513758400E+000 -9.510369564091800E+000 -9.510369613209599E+000 
-9.510369661140800E+000 -9.510369707913799E+000 -9.510369753556599E+000 -9.510369798096200E+000 