<UPF version="2.0.1">
  <PP_INFO>
    Generated using FHI98PP, converted with fhi2upf.x v.5.0.1
    Author: Abinit web site
    Generation date: 10-Jul-2012, PG
    Pseudopotential type: SL
    Element:  K
    Functional: SLA-PW

    Suggested minimum cutoff for wavefunctions:   0. Ry
    Suggested minimum cutoff for charge density:   0. Ry
    The Pseudo was generated with a Non-Relativistic Calculation
    L component and cutoff radius for Local Potential:  0   0.0000

    Valence configuration: 
    nl pn  l   occ       Rcut    Rcut US       E pseu
    4s  4  0  1.00      0.000      0.000     0.000000
    4p  4  1  0.00      0.000      0.000     0.000000
    3d  3  2  0.00      0.000      0.000     0.000000
    4f  4  3  0.00      0.000      0.000     0.000000

    Generation configuration: not available.
    Comment:
    potassium, fhi98PP : Trouiller-Martins-type, LDA Ceperley/Alder Perdew/Wang (199
  </PP_INFO>
  <!--                               -->
  <!-- END OF HUMAN READABLE SECTION -->
  <!--                               -->
  <PP_HEADER generated="Generated using FHI98PP, converted with fhi2upf.x v.5.0.1"
             author="Abinit web site"
             date="10-Jul-2012, PG"
             comment="potassium, fhi98PP : Trouiller-Martins-type, LDA Ceperley/Alder Perdew/Wang (199"
             element=" K"
             pseudo_type="SL"
             relativistic="no"
             is_ultrasoft="F"
             is_paw="F"
             is_coulomb="F"
             has_so="F"
             has_wfc="F"
             has_gipaw="F"
             paw_as_gipaw="F"
             core_correction="T"
             functional="SLA-PW"
             z_valence="1.000000000000000E+000"
             total_psenergy="0.000000000000000E+000"
             wfc_cutoff="0.000000000000000E+000"
             rho_cutoff="0.000000000000000E+000"
             l_max="3"
             l_max_rho="0"
             l_local="0"
             mesh_size="509"
             number_of_wfc="4"
             number_of_proj="3"/>
  <PP_MESH dx="2.439988682353512E-002" mesh="509" xmin="-5.075173815233835E+000" rmax="7.948193093219000E+001"
zmesh="1.900000000000000E+001">
    <PP_R type="real" size="509" columns="4">
 3.289473684210500E-004  3.370723684210500E-004  3.453980559210500E-004  3.539293879023000E-004 
 3.626714437834900E-004  3.716294284449400E-004  3.808086753275300E-004  3.902146496081200E-004 
 3.998529514534400E-004  4.097293193543400E-004  4.198496335423900E-004  4.302199194908900E-004 
 4.408463515023200E-004  4.517352563844200E-004  4.628931172171200E-004  4.743265772123800E-004 
 4.860424436695300E-004  4.980476920281600E-004  5.103494700212600E-004  5.229551019307899E-004 
 5.358720929484800E-004  5.491081336443000E-004  5.626711045453200E-004  5.765690808275900E-004 
 5.908103371240300E-004  6.054033524509900E-004  6.203568152565300E-004  6.356796285933700E-004 
 6.513809154196200E-004  6.674700240304900E-004  6.839565336240400E-004  7.008502600045600E-004 
 7.181612614266700E-004  7.358998445839100E-004  7.540765707451300E-004  7.727022620425300E-004 
 7.917880079149800E-004  8.113451717104800E-004  8.313853974517300E-004  8.519206167687899E-004 
 8.729630560029800E-004  8.945252434862500E-004  9.166200170003600E-004  9.392605314202700E-004 
 9.624602665463500E-004  9.862330351300499E-004  1.010592991097800E-003  1.035554637977900E-003 
 1.061132837535900E-003  1.087342818623100E-003  1.114200186243100E-003  1.141720930843300E-003 
 1.169921437835100E-003  1.198818497349600E-003  1.228429314234100E-003  1.258771518295700E-003 
 1.289863174797600E-003  1.321722795215100E-003  1.354369348257000E-003  1.387822271158900E-003 
 1.422101481256500E-003  1.457227387843600E-003  1.493220904323300E-003  1.530103460660100E-003 
 1.567897016138400E-003  1.606624072437000E-003  1.646307687026200E-003  1.686971486895700E-003 
 1.728639682622100E-003  1.771337082782800E-003  1.815089108727600E-003  1.859921809713100E-003 
 1.905861878413100E-003  1.952936666809900E-003  2.001174202480100E-003  2.050603205281300E-003 
 2.101253104451800E-003  2.153154056131700E-003  2.206336961318200E-003  2.260833484262700E-003 
 2.316676071324000E-003  2.373897970285700E-003  2.432533250151800E-003  2.492616821430500E-003 
 2.554184456919900E-003  2.617272813005800E-003  2.681919451487000E-003  2.748162861938800E-003 
 2.816042484628700E-003  2.885598733999000E-003  2.956873022728800E-003  3.029907786390200E-003 
 3.104746508714000E-003  3.181433747479200E-003  3.260015161042000E-003  3.340537535519700E-003 
 3.423048812647000E-003  3.507598118319400E-003  3.594235791841900E-003  3.683013415900400E-003 
 3.773983847273100E-003  3.867201248300800E-003  3.962721119133800E-003  4.060600330776400E-003 
 4.160897158946600E-003  4.263671318772600E-003  4.368984000346300E-003  4.476897905154800E-003 
 4.587477283412100E-003  4.700787972312400E-003  4.816897435228500E-003  4.935874801878700E-003 
 5.057790909485100E-003  5.182718344949400E-003  5.310731488069600E-003  5.441906555824900E-003 
 5.576321647753800E-003  5.714056792453300E-003  5.855193995226900E-003  5.999817286909000E-003 
 6.148012773895700E-003  6.299868689410900E-003  6.455475446039400E-003  6.614925689556500E-003 
 6.778314354088600E-003  6.945738718634600E-003  7.117298464984800E-003  7.293095737070000E-003 
 7.473235201775600E-003  7.657824111259400E-003  7.846972366807500E-003  8.040792584267700E-003 
 8.239400161099100E-003  8.442913345078200E-003  8.651453304701700E-003  8.865144201327800E-003 
 9.084113263100600E-003  9.308490860699200E-003  9.538410584958501E-003  9.774009326406900E-003 
 1.001542735676900E-002  1.026280841248100E-002  1.051629978027000E-002  1.077605238484200E-002 
 1.104222087874800E-002  1.131496373445300E-002  1.159444333869400E-002  1.188082608916000E-002 
 1.217428249356200E-002  1.247498727115300E-002  1.278311945675000E-002  1.309886250733200E-002 
 1.342240441126300E-002  1.375393780022100E-002  1.409366006388700E-002  1.444177346746500E-002 
 1.479848527211100E-002  1.516400785833200E-002  1.553855885243300E-002  1.592236125608800E-002 
 1.631564357911400E-002  1.671863997551800E-002  1.713159038291300E-002  1.755474066537100E-002 
 1.798834275980600E-002  1.843265482597300E-002  1.888794140017500E-002  1.935447355275900E-002 
 1.983252904951200E-002  2.032239251703500E-002  2.082435561220600E-002  2.133871719582700E-002 
 2.186578351056400E-002  2.240586836327500E-002  2.295929331184800E-002  2.352638785665100E-002 
 2.410748963671000E-002  2.470294463073700E-002  2.531310736311600E-002  2.593834111498500E-002 
 2.657901814052500E-002  2.723551988859600E-002  2.790823722984400E-002  2.859757068942100E-002 
 2.930393068545000E-002  3.002773777338100E-002  3.076942289638300E-002  3.152942764192400E-002 
 3.230820450467900E-002  3.310621715594500E-002  3.392394071969700E-002  3.476186205547300E-002 
 3.562048004824300E-002  3.650030590543500E-002  3.740186346129900E-002  3.832568948879300E-002 
 3.927233401916700E-002  4.024236066944000E-002  4.123634697797500E-002  4.225488474833100E-002 
 4.329858040161500E-002  4.436805533753500E-002  4.546394630437200E-002  4.658690577809000E-002 
 4.773760235080900E-002  4.891672112887400E-002  5.012496414075700E-002  5.136305075503300E-002 
 5.263171810868300E-002  5.393172154596700E-002  5.526383506815300E-002  5.662885179433600E-002 
 5.802758443365600E-002  5.946086576916700E-002  6.092954915366600E-002  6.243450901776100E-002 
 6.397664139049999E-002  6.555686443284500E-002  6.717611898433699E-002  6.883536912325000E-002 
 7.053560274059401E-002  7.227783212828701E-002  7.406309458185500E-002  7.589245301802700E-002 
 7.776699660757300E-002  7.968784142378001E-002  8.165613110694700E-002  8.367303754528900E-002 
 8.573976157265700E-002  8.785753368350201E-002  9.002761476548400E-002  9.225129685019200E-002 
 9.452990388239101E-002  9.686479250828700E-002  9.925735288324100E-002  1.017090094994600E-001 
 1.042212220340900E-001  1.067954862183400E-001  1.094333347279300E-001  1.121363380957100E-001 
 1.149061056466700E-001  1.177442864561500E-001  1.206525703316100E-001  1.236326888188000E-001 
 1.266864162326300E-001  1.298155707135700E-001  1.330220153102000E-001  1.363076590883600E-001 
 1.396744582678400E-001  1.431244173870600E-001  1.466595904965200E-001  1.502820823817800E-001 
 1.539940498166100E-001  1.577977028470800E-001  1.616953061074100E-001  1.656891801682600E-001 
 1.697817029184200E-001  1.739753109805000E-001  1.782725011617200E-001  1.826758319404100E-001 
 1.871879249893400E-001  1.918114667365800E-001  1.965492099649700E-001  2.014039754511100E-001 
 2.063786536447500E-001  2.114762063897700E-001  2.166996686876000E-001  2.220521505041800E-001 
 2.275368386216400E-001  2.331569985355900E-001  2.389159763994200E-001  2.448172010164900E-001 
 2.508641858815900E-001  2.570605312728700E-001  2.634099263953100E-001  2.699161515772700E-001 
 2.765830805212300E-001  2.834146826101100E-001  2.904150252705800E-001  2.975882763947600E-001 
 3.049387068217100E-001  3.124706928802100E-001  3.201887189943500E-001  3.280973803535100E-001 
 3.362013856482400E-001  3.445055598737500E-001  3.530148472026300E-001  3.617343139285400E-001 
 3.706691514825700E-001  3.798246795241900E-001  3.892063491084400E-001  3.988197459314200E-001 
 4.086705936559200E-001  4.187647573192300E-001  4.291082468250100E-001  4.397072205215900E-001 
 4.505679888684700E-001  4.616970181935200E-001  4.731009345429000E-001  4.847865276261100E-001 
 4.967607548584800E-001  5.090307455034800E-001  5.216038049174200E-001  5.344874188988800E-001 
 5.476892581456800E-001  5.612171828218800E-001  5.750792472375800E-001  5.892837046443500E-001 
 6.038390121490600E-001  6.187538357491400E-001  6.340370554921499E-001  6.496977707628000E-001 
 6.657453057006500E-001  6.821892147514500E-001  6.990392883558100E-001  7.163055587782000E-001 
 7.339983060800200E-001  7.521280642402000E-001  7.707056274269301E-001  7.897420564243800E-001 
 8.092486852180600E-001  8.292371277429400E-001  8.497192847981900E-001  8.707073511327100E-001 
 8.922138227056901E-001  9.142515041265200E-001  9.368335162784400E-001  9.599733041305200E-001 
 9.836846447425400E-001  1.007981655467700E+000  1.032878802357700E+000  1.058390908776000E+000 
 1.084533164222700E+000  1.111321133379000E+000  1.138770765373500E+000  1.166898403278200E+000 
 1.195720793839200E+000  1.225255097447000E+000  1.255518898354000E+000  1.286530215143300E+000 
 1.318307511457400E+000  1.350869706990400E+000  1.384236188753000E+000  1.418426822615200E+000 
 1.453461965133800E+000  1.489362475672600E+000  1.526149728821700E+000  1.563845627123600E+000 
 1.602472614113600E+000  1.642053687682200E+000  1.682612413767900E+000  1.724172940388000E+000 
 1.766760012015600E+000  1.810398984312400E+000  1.855115839224900E+000  1.900937200453700E+000 
 1.947890349304900E+000  1.996003240932800E+000  2.045304520983800E+000  2.095823542652100E+000 
 2.147590384155600E+000  2.200635866644300E+000  2.254991572550400E+000  2.310689864392400E+000 
 2.367763904042900E+000  2.426247672472700E+000  2.486175989982800E+000  2.547584536935400E+000 
 2.610509874997700E+000  2.674989468910100E+000  2.741061708792200E+000  2.808765932999400E+000 
 2.878142451544500E+000  2.949232570097600E+000  3.022078614579000E+000  3.096723956359100E+000 
 3.173213038081200E+000  3.251591400121800E+000  3.331905707704800E+000  3.414203778685100E+000 
 3.498534612018600E+000  3.584948416935500E+000  3.673496642833800E+000  3.764232009911800E+000 
 3.857208540556600E+000  3.952481591508400E+000  4.050107886818600E+000  4.150145551623000E+000 
 4.252654146748100E+000  4.357694704172800E+000  4.465329763365900E+000  4.575623408521000E+000 
 4.688641306711500E+000  4.804450746987200E+000  4.923120680437800E+000  5.044721761244600E+000 
 5.169326388747400E+000  5.297008750549400E+000  5.427844866688000E+000  5.561912634895200E+000 
 5.699291876977100E+000  5.840064386338500E+000  5.984313976681000E+000  6.132126531905000E+000 
 6.283590057243100E+000  6.438794731657000E+000  6.597832961528900E+000  6.760799435678700E+000 
 6.927791181739900E+000  7.098907623928900E+000  7.274250642240000E+000  7.453924633103300E+000 
 7.638036571540900E+000  7.826696074858000E+000  8.020015467906999E+000  8.218109849964300E+000 
 8.421097163258400E+000  8.629098263190899E+000  8.842236990291701E+000  9.060640243951900E+000 
 9.284438057977500E+000  9.513763678009600E+000  9.748753640856400E+000  9.989547855785601E+000 
 1.023628968782300E+001  1.048912604311300E+001  1.074820745637800E+001  1.101368818055000E+001 
 1.128572627861000E+001  1.156448371769100E+001  1.185012646551800E+001  1.214282458921700E+001 
 1.244275235657000E+001  1.275008833977800E+001  1.306501552177000E+001  1.338772140515800E+001 
 1.371839812386500E+001  1.405724255752500E+001  1.440445644869600E+001  1.476024652297800E+001 
 1.512482461209600E+001  1.549840778001500E+001  1.588121845218100E+001  1.627348454795000E+001 
 1.667543961628400E+001  1.708732297480600E+001  1.750937985228400E+001  1.794186153463600E+001 
 1.838502551454100E+001  1.883913564475000E+001  1.930446229517600E+001  1.978128251386600E+001 
 2.026988019195900E+001  2.077054623270000E+001  2.128357872464800E+001  2.180928311914700E+001 
 2.234797241219000E+001  2.289996733077100E+001  2.346559652384100E+001  2.404519675798000E+001 
 2.463911311790200E+001  2.524769921191400E+001  2.587131738244800E+001  2.651033892179500E+001 
 2.716514429316300E+001  2.783612335720400E+001  2.852367560412700E+001  2.922821039154900E+001 
 2.995014718822000E+001  3.068991582376900E+001  3.144795674461600E+001  3.222472127620800E+001 
 3.302067189173100E+001  3.383628248745700E+001  3.467203866489700E+001  3.552843801992000E+001 
 3.640599043901200E+001  3.730521840285500E+001  3.822665729740600E+001  3.917085573265200E+001 
 4.013837586924800E+001  4.112979375321900E+001  4.214569965892300E+001  4.318669844049900E+001 
 4.425340989197900E+001  4.534646911631100E+001  4.646652690348400E+001  4.761425011800000E+001 
 4.879032209591400E+001  4.999544305168300E+001  5.123033049506000E+001  5.249571965828800E+001 
 5.379236393384800E+001  5.512103532301400E+001  5.648252489549200E+001  5.787764326041100E+001 
 5.930722104894300E+001  6.077210940885200E+001  6.227318051125000E+001  6.381132806987800E+001 
 6.538746787320400E+001  6.700253832967201E+001  6.865750102641501E+001  7.035334130176800E+001 
 7.209106883192101E+001  7.387171823206999E+001  7.569634967240199E+001  7.756604950931001E+001 
 7.948193093219000E+001
    </PP_R>
    <PP_RAB type="real" size="509" columns="4">
 8.026278560373331E-006  8.224527640814554E-006  8.427673473542675E-006  8.635837008339181E-006 
 8.849142182445237E-006  9.067715994351579E-006  9.291688579412064E-006  9.521193287323542E-006 
 9.756366761520418E-006  9.997349020529975E-006  1.024428354133701E-005  1.049731734480811E-005 
 1.075660108322499E-005  1.102228912998047E-005  1.129453967149111E-005  1.157351480137687E-005 
 1.185938061697098E-005  1.215230731820998E-005  1.245246930896987E-005  1.276004530090155E-005 
 1.307521841983381E-005  1.339817631480352E-005  1.372911126977931E-005  1.406822031814287E-005 
 1.441570536000096E-005  1.477177328239290E-005  1.513663608246802E-005  1.551051099370507E-005 
 1.589362061524943E-005  1.628619304444623E-005  1.668846201264397E-005  1.710066702435643E-005 
 1.752305349985797E-005  1.795587292130449E-005  1.839938298246065E-005  1.885384774212731E-005 
 1.931953778135784E-005  1.979673036455738E-005  2.028570960456198E-005  2.078676663179471E-005 
 2.130019976760006E-005  2.182631470185970E-005  2.236542467499562E-005  2.291785066446804E-005 
 2.348392157588039E-005  2.406397443880476E-005  2.465835460744416E-005  2.526741596624765E-005 
 2.589152114061264E-005  2.653104171278731E-005  2.718635844309339E-005  2.785786149663769E-005 
 2.854595067560392E-005  2.925103565729068E-005  2.997353623802490E-005  3.071388258310455E-005 
 3.147251548290714E-005  3.224988661533492E-005  3.304645881473583E-005  3.386270634745863E-005 
 3.469911519424025E-005  3.555618333953956E-005  3.643442106802529E-005  3.733435126840586E-005 
 3.825650974473538E-005  3.920144553542989E-005  4.016972124015516E-005  4.116191335478584E-005 
 4.217861261465091E-005  4.322042434623118E-005  4.428796882758468E-005  4.538188165762427E-005 
 4.650281413456969E-005  4.765143364369348E-005  4.882842405469260E-005  5.003448612884208E-005 
 5.127033793622574E-005  5.253671528324907E-005  5.383437215074647E-005  5.516408114286845E-005 
 5.652663394709758E-005  5.792284180559082E-005  5.935353599818997E-005  6.081956833734405E-005 
 6.232181167527808E-005  6.386116042365692E-005  6.543853108612020E-005  6.705486280394909E-005 
 6.871111791520692E-005  7.040828252771183E-005  7.214736710614691E-005  7.392940707366871E-005 
 7.575546342838740E-005  7.762662337506769E-005  7.954400097243342E-005  8.150873779645161E-005 
 8.352200362002308E-005  8.558499710943812E-005  8.769894653804150E-005  8.986511051753124E-005 
 9.208477874731329E-005  9.435927278237326E-005  9.668994682009715E-005  9.907818850655344E-005 
 1.015254197626659E-004  1.040330976308042E-004  1.066027151422854E-004  1.092358022062986E-004 
 1.119339265207936E-004  1.146986945058577E-004  1.175317522601520E-004  1.204347865409791E-004 
 1.234095257685412E-004  1.264577410550246E-004  1.295812472590825E-004  1.327819040663814E-004 
 1.360616170968216E-004  1.394223390391126E-004  1.428660708133788E-004  1.463948627624692E-004 
 1.500108158727033E-004  1.537160830247585E-004  1.575128702754713E-004  1.614034381712736E-004 
 1.653901030941054E-004  1.694752386405301E-004  1.736612770349494E-004  1.779507105777144E-004 
 1.823460931289833E-004  1.868500416292678E-004  1.914652376575105E-004  1.961944290276524E-004 
 2.010404314246351E-004  2.060061300808224E-004  2.110944814938204E-004  2.163085151867170E-004 
 2.216513355118290E-004  2.271261234989715E-004  2.327361387493968E-004  2.384847213765051E-004 
 2.443752939945011E-004  2.504113637561606E-004  2.565965244409552E-004  2.629344585946305E-004 
 2.694289397219277E-004  2.760838345330575E-004  2.829031052460243E-004  2.898908119456074E-004 
 2.970511150006578E-004  3.043882775411745E-004  3.119066679964297E-004  3.196107626959483E-004 
 3.275051485345358E-004  3.355945257033340E-004  3.438837104882196E-004  3.523776381372784E-004 
 3.610813657992598E-004  3.700000755344980E-004  3.791390774002050E-004  3.885038126119877E-004 
 3.980998567835191E-004  4.079329232460692E-004  4.180088664502399E-004  4.283336854515620E-004 
 4.389135274822238E-004  4.497546916110297E-004  4.608636324938335E-004  4.722469642164233E-004 
 4.839114642325654E-004  4.958640773991110E-004  5.081119201108749E-004  5.206622845376016E-004 
 5.335226429656820E-004  5.467006522469360E-004  5.602041583574381E-004  5.740412010688754E-004 
 5.882200187352698E-004  6.027490531980373E-004  6.176369548120240E-004  6.328925875958818E-004 
 6.485250345094969E-004  6.645436028618822E-004  6.809578298525629E-004  6.977774882499176E-004 
 7.150125922096980E-004  7.326734032372869E-004  7.507704362972354E-004  7.693144660737854E-004 
 7.883165333857952E-004  8.077879517604348E-004  8.277403141689214E-004  8.481854999288812E-004 
 8.691356817771202E-004  8.906033331170246E-004  9.126012354450092E-004  9.351424859604989E-004 
 9.582405053637430E-004  9.819090458462170E-004  1.006162199278615E-003  1.031014405600797E-003 
 1.056480461419142E-003  1.082575528816197E-003  1.109315144377955E-003  1.136715228444090E-003 
 1.164792094586664E-003  1.193562459322955E-003  1.223043452068227E-003  1.253252625334295E-003 
 1.284207965180069E-003  1.315927901920005E-003  1.348431321097445E-003  1.381737574728542E-003 
 1.415866492824335E-003  1.450838395197088E-003  1.486674103558471E-003  1.523394953916351E-003 
 1.561022809278092E-003  1.599580072667253E-003  1.639089700462152E-003  1.679575216063564E-003 
 1.721060723900327E-003  1.763570923780674E-003  1.807131125598039E-003  1.851767264400315E-003 
 1.897505915831021E-003  1.944374311952046E-003  1.992400357457252E-003  2.041612646286457E-003 
 2.092040478649717E-003  2.143713878472374E-003  2.196663611270629E-003  2.250921202469027E-003 
 2.306518956169994E-003  2.363489974387416E-003  2.421868176754768E-003  2.481688320720683E-003 
 2.542986022242321E-003  2.605797776991900E-003  2.670160982083528E-003  2.736113958340994E-003 
 2.803695973111918E-003  2.872947263647959E-003  2.943909061059896E-003  3.016623614868056E-003 
 3.091134218155434E-003  3.167485233343728E-003  3.245722118607436E-003  3.325891454936993E-003 
 3.408040973873875E-003  3.492219585928666E-003  3.578477409701095E-003  3.666865801720614E-003 
 3.757437387023113E-003  3.850246090482578E-003  3.945347168917672E-003  4.042797243989864E-003 
 4.142654335916511E-003  4.244977898013527E-003  4.349828852094502E-003  4.457269624741127E-003 
 4.567364184472278E-003  4.680178079828823E-003  4.795778478400509E-003  4.914234206817129E-003 
 5.035615791725454E-003  5.159995501780943E-003  5.287447390674997E-003  5.418047341224579E-003 
 5.551873110552991E-003  5.689004376383540E-003  5.829522784480236E-003  5.973511997257003E-003 
 6.121057743589073E-003  6.272247869855838E-003  6.427172392241281E-003  6.585923550329538E-003 
 6.748595862022713E-003  6.915286179814811E-003  7.086093748456244E-003  7.261120264043032E-003 
 7.440469934564881E-003  7.624249541948726E-003  7.812568505634830E-003  8.005538947724000E-003 
 8.203275759732740E-003  8.405896670998102E-003  8.613522318771716E-003  8.826276320045500E-003 
 9.044285345150505E-003  9.267679193175735E-003  9.496590869247236E-003  9.731156663717679E-003 
 9.971516233311358E-003  1.021781268427436E-002  1.047019265757582E-002  1.072880641621800E-002 
 1.099380793469850E-002  1.126535499068552E-002  1.154360925895546E-002  1.182873640765167E-002 
 1.212090619692079E-002  1.242029257998462E-002  1.272707380671034E-002  1.304143252973608E-002 
 1.336355591322050E-002  1.369363574427709E-002  1.403186854716072E-002  1.437845570027564E-002 
 1.473360355607231E-002  1.509752356390726E-002  1.547043239593592E-002  1.585255207611538E-002 
 1.624411011239565E-002  1.664533963217167E-002  1.705647952108630E-002  1.747777456525717E-002 
 1.790947559701898E-002  1.835183964426543E-002  1.880513008347872E-002  1.926961679654076E-002 
 1.974557633141526E-002  2.023329206680107E-002  2.073305438085104E-002  2.124516082405818E-002 
 2.176991629641247E-002  2.230763322893384E-002  2.285863176968838E-002  2.342323997439975E-002 
 2.400179400176733E-002  2.459463831361145E-002  2.520212587995638E-002  2.582461838919288E-002 
 2.646248646340431E-002  2.711610987905038E-002  2.778587779306387E-002  2.847218897455192E-002 
 2.917545204222405E-002  2.989608570766630E-002  3.063451902464710E-002  3.139119164455481E-002 
 3.216655407817679E-002  3.296106796390781E-002  3.377520634261480E-002  3.460945393927740E-002 
 3.546430745157767E-002  3.634027584563152E-002  3.723788065901830E-002  3.815765631129615E-002 
 3.910015042218631E-002  4.006592413761417E-002  4.105555246381200E-002  4.206962460966897E-002 
 4.310874433752819E-002  4.417353032266549E-002  4.526461652163494E-002  4.638265254971798E-002 
 4.752830406769586E-002  4.870225317816962E-002  4.990519883166943E-002  5.113785724281167E-002 
 5.240096231670895E-002  5.369526608593305E-002  5.502153915825524E-002  5.638057117546427E-002 
 5.777317128349844E-002  5.920016861419938E-002  6.066241277897071E-002  6.216077437461189E-002 
 6.369614550166469E-002  6.526944029555476E-002  6.688159547085545E-002  6.853357087898640E-002 
 7.022635007969771E-002  7.196094092666505E-002  7.373837616755342E-002  7.555971405889195E-002 
 7.742603899614732E-002  7.933846215935203E-002  8.129812217468781E-002  8.330618579240240E-002 
 8.536384858147419E-002  8.747233564143760E-002  8.963290233178094E-002  9.184683501937606E-002 
 9.411545184435412E-002  9.644010350491093E-002  9.882217406148082E-002  1.012630817607989E-001 
 1.037642798802910E-001  1.063272575933347E-001  1.089535408558908E-001  1.116446933150304E-001 
 1.144023172399124E-001  1.172280544757365E-001  1.201235874212875E-001  1.230906400305930E-001 
 1.261309788393501E-001  1.292464140166805E-001  1.324388004428933E-001  1.357100388138329E-001 
 1.390620767725343E-001  1.424969100688175E-001  1.460165837475158E-001  1.496231933660789E-001 
 1.533188862422222E-001  1.571058627324050E-001  1.609863775418947E-001  1.649627410671804E-001 
 1.690373207715382E-001  1.732125425945958E-001  1.774908923966837E-001  1.818749174388811E-001 
 1.863672278996202E-001  1.909704984287418E-001  1.956874697399318E-001  2.005209502425081E-001 
 2.054738177134976E-001  2.105490210110214E-001  2.157495818299933E-001  2.210785965011940E-001 
 2.265392378347732E-001  2.321347570092935E-001  2.378684855074221E-001  2.437438370994566E-001 
 2.497643098758008E-001  2.559334883297520E-001  2.622550454914995E-001  2.687327451151265E-001 
 2.753704439194802E-001  2.821720938842751E-001  2.891417446032175E-001  2.962835456949341E-001 
 3.036017492735829E-001  3.111007124806580E-001  3.187849000789177E-001  3.266588871108738E-001 
 3.347273616225026E-001  3.429951274545914E-001  3.514671071027230E-001  3.601483446481410E-001 
 3.690440087609609E-001  3.781593957773622E-001  3.874999328530540E-001  3.970711811945277E-001 
 4.068788393700235E-001  4.169287467024579E-001  4.272268867460157E-001  4.377793908486566E-001 
 4.485925418026059E-001  4.596727775851264E-001  4.710266951914954E-001  4.826610545627047E-001 
 4.945827826104159E-001  5.067989773408837E-001  5.193169120812111E-001  5.321440398096219E-001 
 5.452879975929211E-001  5.587566111334640E-001  5.725578994284596E-001  5.867000795443457E-001 
 6.011915715090883E-001  6.160410033253585E-001  6.312572161074881E-001  6.468492693453561E-001 
 6.628264462981781E-001  6.791982595217401E-001  6.959744565319286E-001  7.131650256082687E-001 
 7.307802017407866E-001  7.488304727237832E-001  7.673265854000584E-001  7.862795520594394E-001 
 8.057006569953238E-001  8.256014632231142E-001  8.459938193647206E-001  8.668898667030304E-001 
 8.883020464105945E-001  9.102431069569216E-001  9.327261116987693E-001  9.557644466577307E-001 
 9.793718284901644E-001  1.003562312653885E+000  1.028350301776424E+000  1.053750554230316E+000 
 1.079778192919797E+000  1.106448714284919E+000  1.133777997527760E+000  1.161782314066694E+000 
 1.190478337224127E+000  1.219883152153560E+000  1.250014266011764E+000  1.280889618382255E+000 
 1.312527591956304E+000  1.344947023477623E+000  1.378167214957510E+000  1.412207945166969E+000 
 1.447089481412589E+000  1.482832591603483E+000  1.519458556616073E+000  1.556989182964493E+000 
 1.595446815783716E+000  1.634854352133571E+000  1.675235254631273E+000  1.716613565420678E+000 
 1.759013920486553E+000  1.802461564322584E+000  1.846982364961348E+000  1.892602829375886E+000 
 1.939350119261471E+000
    </PP_RAB>
  </PP_MESH>
  <PP_NLCC type="real" size="509" columns="4">
 3.222452870979409E-002  3.222452870978136E-002  3.222452870976863E-002  3.222452870975431E-002 
 3.222452870973919E-002  3.222452870972247E-002  3.222452870970496E-002  3.222452870968587E-002 
 3.222452870966597E-002  3.222452870964369E-002  3.222452870962061E-002  3.222452870959515E-002 
 3.222452870956730E-002  3.222452870953785E-002  3.222452870950682E-002  3.222452870947260E-002 
 3.222452870943600E-002  3.222452870939620E-002  3.222452870935403E-002  3.222452870930867E-002 
 3.222452870925933E-002  3.222452870920681E-002  3.222452870915031E-002  3.222452870908904E-002 
 3.222452870902299E-002  3.222452870895216E-002  3.222452870887656E-002  3.222452870879460E-002 
 3.222452870870627E-002  3.222452870861157E-002  3.222452870850971E-002  3.222452870839990E-002 
 3.222452870828132E-002  3.222452870815480E-002  3.222452870801792E-002  3.222452870787070E-002 
 3.222452870771235E-002  3.222452870754206E-002  3.222452870735903E-002  3.222452870716247E-002 
 3.222452870694999E-002  3.222452870672161E-002  3.222452870647651E-002  3.222452870621231E-002 
 3.222452870592822E-002  3.222452870562265E-002  3.222452870529319E-002  3.222452870493907E-002 
 3.222452870455869E-002  3.222452870414887E-002  3.222452870370801E-002  3.222452870323372E-002 
 3.222452870272284E-002  3.222452870217376E-002  3.222452870158329E-002  3.222452870094747E-002 
 3.222452870026310E-002  3.222452869952781E-002  3.222452869873601E-002  3.222452869788373E-002 
 3.222452869696700E-002  3.222452869598104E-002  3.222452869491947E-002  3.222452869377833E-002 
 3.222452869254965E-002  3.222452869122788E-002  3.222452868980583E-002  3.222452868827635E-002 
 3.222452868662989E-002  3.222452868485929E-002  3.222452868295341E-002  3.222452868090270E-002 
 3.222452867869681E-002  3.222452867632380E-002  3.222452867377017E-002  3.222452867102236E-002 
 3.222452866806606E-002  3.222452866488534E-002  3.222452866146351E-002  3.222452865778146E-002 
 3.222452865382010E-002  3.222452864955713E-002  3.222452864497108E-002  3.222452864003728E-002 
 3.222452863472866E-002  3.222452862901660E-002  3.222452862287162E-002  3.222452861625952E-002 
 3.222452860914531E-002  3.222452860149075E-002  3.222452859325607E-002  3.222452858439512E-002 
 3.222452857486174E-002  3.222452856460500E-002  3.222452855356919E-002  3.222452854169623E-002 
 3.222452852892167E-002  3.222452851517704E-002  3.222452850038836E-002  3.222452848447764E-002 
 3.222452846735974E-002  3.222452844894153E-002  3.222452842912515E-002  3.222452840780475E-002 
 3.222452838486575E-002  3.222452836018559E-002  3.222452833363218E-002  3.222452830506307E-002 
 3.222452827432468E-002  3.222452824125388E-002  3.222452820567241E-002  3.222452816739087E-002 
 3.222452812620236E-002  3.222452808188885E-002  3.222452803421080E-002  3.222452798291517E-002 
 3.222452792772500E-002  3.222452786834668E-002  3.222452780446189E-002  3.222452773572844E-002 