<UPF version="2.0.1">
  <PP_INFO>
    Generated using FHI98PP, converted with fhi2upf.x v.5.0.1
    Author: Abinit web site
    Generation date: 10-Jul-2012, PG
    Pseudopotential type: SL
    Element: Kr
    Functional: SLA-PW

    Suggested minimum cutoff for wavefunctions:   0. Ry
    Suggested minimum cutoff for charge density:   0. Ry
    The Pseudo was generated with a Non-Relativistic Calculation
    L component and cutoff radius for Local Potential:  2   0.0000

    Valence configuration: 
    nl pn  l   occ       Rcut    Rcut US       E pseu
    4s  4  0  2.00      0.000      0.000     0.000000
    4p  4  1  6.00      0.000      0.000     0.000000
    4d  4  2  0.00      0.000      0.000     0.000000
    4f  4  3  0.00      0.000      0.000     0.000000

    Generation configuration: not available.
    Comment:
    krypton, fhi98PP : Trouiller-Martins-type, LDA Ceperley/Alder Perdew/Wang (1992)
  </PP_INFO>
  <!--                               -->
  <!-- END OF HUMAN READABLE SECTION -->
  <!--                               -->
  <PP_HEADER generated="Generated using FHI98PP, converted with fhi2upf.x v.5.0.1"
             author="Abinit web site"
             date="10-Jul-2012, PG"
             comment="krypton, fhi98PP : Trouiller-Martins-type, LDA Ceperley/Alder Perdew/Wang (1992)"
             element="Kr"
             pseudo_type="SL"
             relativistic="no"
             is_ultrasoft="F"
             is_paw="F"
             is_coulomb="F"
             has_so="F"
             has_wfc="F"
             has_gipaw="F"
             paw_as_gipaw="F"
             core_correction="F"
             functional="SLA-PW"
             z_valence="8.000000000000000E+000"
             total_psenergy="0.000000000000000E+000"
             wfc_cutoff="0.000000000000000E+000"
             rho_cutoff="0.000000000000000E+000"
             l_max="3"
             l_max_rho="0"
             l_local="2"
             mesh_size="535"
             number_of_wfc="4"
             number_of_proj="3"/>
  <PP_MESH dx="2.439988682353512E-002" mesh="535" xmin="-5.075173815233833E+000" rmax="7.911059499206900E+001"
zmesh="3.600000000000000E+001">
    <PP_R type="real" size="535" columns="4">
 1.736111111111100E-004  1.778993055555600E-004  1.822934184027800E-004  1.867960658373300E-004 
 1.914099286635100E-004  1.961377539015000E-004  2.009823564228600E-004  2.059466206265100E-004 
 2.110335021559800E-004  2.162460296592400E-004  2.215873065918200E-004  2.270605130646400E-004 
 2.326689077373300E-004  2.384158297584500E-004  2.443047007534800E-004  2.503390268620900E-004 
 2.565224008255800E-004  2.628585041259800E-004  2.693511091778900E-004  2.760040815745800E-004 
 2.828213823894700E-004  2.898070705344900E-004  2.969653051767000E-004  3.043003482145600E-004 
 3.118165668154600E-004  3.195184360158000E-004  3.274105413853900E-004  3.354975817576100E-004 
 3.437843720270200E-004  3.522758460160900E-004  3.609770594126900E-004  3.698931927801800E-004 
 3.790295546418500E-004  3.883915846415100E-004  3.979848567821500E-004  4.078150827446700E-004 
 4.178881152884600E-004  4.282099517360900E-004  4.387867375439700E-004  4.496247699613100E-004 
 4.607305017793500E-004  4.721105451733000E-004  4.837716756390800E-004  4.957208360273700E-004 
 5.079651406772400E-004  5.205118796519699E-004  5.333685230793700E-004  5.465427255994299E-004 
 5.600423309217400E-004  5.738753764955100E-004  5.880500982949500E-004  6.025749357228300E-004 
 6.174585366351800E-004  6.327097624900700E-004  6.483376936235800E-004  6.643516346560800E-004 
 6.807611200320899E-004  6.975759196968800E-004  7.148060449133900E-004  7.324617542227500E-004 
 7.505535595520500E-004  7.690922324729901E-004  7.880888106150700E-004  8.075546042372600E-004 
 8.275012029619300E-004  8.479404826750800E-004  8.688846125971600E-004  8.903460625283100E-004 
 9.123376102727600E-004  9.348723492465000E-004  9.579636962728800E-004  9.816253995708201E-004 
 1.005871546940200E-003  1.030716574149600E-003  1.056175273531100E-003  1.082262802787400E-003 
 1.108994694016200E-003  1.136386862958400E-003  1.164455618473500E-003  1.193217672249800E-003 
 1.222690148754300E-003  1.252890595428600E-003  1.283836993135700E-003  1.315547766866100E-003 
 1.348041796707700E-003  1.381338429086400E-003  1.415457488284800E-003  1.450419288245500E-003 
 1.486244644665100E-003  1.522954887388300E-003  1.560571873106800E-003  1.599117998372600E-003 
 1.638616212932400E-003  1.679090033391800E-003  1.720563557216600E-003  1.763061477079800E-003 
 1.806609095563700E-003  1.851232340224100E-003  1.896957779027700E-003  1.943812636169700E-003 
 1.991824808283000E-003  2.041022881047600E-003  2.091436146209500E-003  2.143094619020900E-003 
 2.196029056110700E-003  2.250270973796600E-003  2.305852666849400E-003  2.362807227720600E-003 
 2.421168566245300E-003  2.480971429831600E-003  2.542251424148400E-003  2.605045034324900E-003 
 2.669389646672700E-003  2.735323570945500E-003  2.802886063147800E-003  2.872117348907600E-003 
 2.943058647425600E-003  3.015752196017000E-003  3.090241275258700E-003  3.166570234757500E-003 
 3.244784519556100E-003  3.324930697189100E-003  3.407056485409700E-003  3.491210780599300E-003 
 3.577443686880100E-003  3.665806545946000E-003  3.756351967630900E-003  3.849133861231400E-003 
 3.944207467603800E-003  4.041629392053600E-003  4.141457638037300E-003  4.243751641696800E-003 
 4.348572307246700E-003  4.455982043235700E-003  4.566044799703700E-003  4.678826106256300E-003 
 4.794393111080900E-003  4.912814620924600E-003  5.034161142061400E-003  5.158504922270300E-003 
 5.285919993850400E-003  5.416482217698500E-003  5.550269328475700E-003  5.687360980889000E-003 
 5.827838797117000E-003  5.971786415405800E-003  6.119289539866300E-003  6.270435991501000E-003 
 6.425315760491000E-003  6.584021059775200E-003  6.746646379951600E-003  6.913288545536400E-003 
 7.084046772611200E-003  7.259022727894700E-003  7.438320589273700E-003  7.622047107828700E-003 
 7.810311671392100E-003  8.003226369675501E-003  8.200906061006499E-003  8.403468440713300E-003 
 8.611034111198901E-003  8.823726653745600E-003  9.041672702093100E-003  9.265002017834799E-003 
 9.493847567675301E-003  9.728345602596901E-003  9.968635738981000E-003  1.021486104173400E-002 
 1.046716810946500E-002  1.072570716176800E-002  1.099063212866400E-002  1.126210074224200E-002 
 1.154027463057600E-002  1.182531941395100E-002  1.211740480347500E-002  1.241670470212100E-002 
 1.272339730826400E-002  1.303766522177800E-002  1.335969555275600E-002  1.368968003290900E-002 
 1.402781512972100E-002  1.437430216342600E-002  1.472934742686200E-002  1.509316230830600E-002 
 1.546596341732100E-002  1.584797271372900E-002  1.623941763975800E-002  1.664053125546000E-002 
 1.705155237747000E-002  1.747272572119300E-002  1.790430204650700E-002  1.834653830705500E-002 
 1.879969780324000E-002  1.926405033898000E-002  1.973987238235200E-002  2.022744723019600E-002 
 2.072706517678200E-002  2.123902368664900E-002  2.176362757170900E-002  2.230118917273000E-002 
 2.285202854529700E-002  2.341647365036600E-002  2.399486054953000E-002  2.458753360510300E-002 
 2.519484568514900E-002  2.581715837357200E-002  2.645484218539900E-002  2.710827678737900E-002 
 2.777785122402700E-002  2.846396414926100E-002  2.916702406374700E-002  2.988744955812200E-002 
 3.062566956220700E-002  3.138212360039400E-002  3.215726205332400E-002  3.295154642604100E-002 
 3.376544962276400E-002  3.459945622844600E-002  3.545406279728900E-002  3.632977814838200E-002 
 3.722712366864700E-002  3.814663362326200E-002  3.908885547375700E-002  4.005435020395900E-002 
 4.104369265399700E-002  4.205747186255000E-002  4.309629141755500E-002  4.416076981556900E-002 
 4.525154083001400E-002  4.636925388851500E-002  4.751457445956100E-002  4.868818444871200E-002 
 4.989078260459600E-002  5.112308493492900E-002  5.238582513282200E-002  5.367975501360200E-002 
 5.500564496243800E-002  5.636428439301100E-002  5.775648221751800E-002  5.918306732829100E-002 
 6.064488909130000E-002  6.214281785185500E-002  6.367774545279500E-002  6.525058576547900E-002 
 6.686227523388701E-002  6.851377343216400E-002  7.020606363593800E-002  7.194015340774600E-002 
 7.371707519691700E-002  7.553788695428100E-002  7.740367276205200E-002  7.931554347927400E-002 
 8.127463740321300E-002  8.328212094707201E-002  8.533918933446499E-002  8.744706731102600E-002 
 8.960700987360801E-002  9.182030301748600E-002  9.408826450201800E-002  9.641224463521800E-002 
 9.879362707770800E-002  1.012338296665300E-001  1.037343052592900E-001  1.062965425992000E-001 
 1.089220672014000E-001  1.116124422612700E-001  1.143692695851200E-001  1.171941905438800E-001 
 1.200888870503100E-001  1.230550825604500E-001  1.260945430996900E-001  1.292090783142600E-001 
 1.324005425486200E-001  1.356708359495700E-001  1.390219055975200E-001  1.424557466657800E-001 
 1.459744036084300E-001  1.495799713775600E-001  1.532745966705800E-001  1.570604792083500E-001 
 1.609398730447900E-001  1.649150879090000E-001  1.689884905803500E-001  1.731625062976900E-001 
 1.774396202032400E-001  1.818223788222600E-001  1.863133915791700E-001  1.909153323511700E-001 
 1.956309410602500E-001  2.004630253044400E-001  2.054144620294500E-001  2.104881992415800E-001 
 2.156872577628500E-001  2.210147330295900E-001  2.264737969354200E-001  2.320676997197300E-001 
 2.377997719028000E-001  2.436734262688000E-001  2.496921598976400E-001  2.558595562471200E-001 
 2.621792872864200E-001  2.686551156823900E-001  2.752908970397500E-001  2.820905821966300E-001 
 2.890582195768900E-001  2.961979576004400E-001  3.035140471531700E-001  3.110108441178500E-001 
 3.186928119675600E-001  3.265645244231600E-001  3.346306681764100E-001  3.428960456803700E-001 
 3.513655780086700E-001  3.600443077854900E-001  3.689374021877900E-001  3.780501560218300E-001 
 3.873879948755700E-001  3.969564783489900E-001  4.067613033642100E-001  4.168083075573100E-001 
 4.271034727539800E-001  4.376529285310000E-001  4.484629558657100E-001  4.595399908756000E-001 
 4.708906286502300E-001  4.825216271778900E-001  4.944399113691800E-001  5.066525771800000E-001 
 5.191668958363400E-001  5.319903181635000E-001  5.451304790221400E-001  5.585952018539900E-001 
 5.723925033397800E-001  5.865305981722700E-001  6.010179039471300E-001  6.158630461746200E-001 
 6.310748634151400E-001  6.466624125414900E-001  6.626349741312600E-001  6.790020579923099E-001 
 6.957734088247201E-001  7.129590120226900E-001  7.305690996196500E-001  7.486141563802500E-001 
 7.671049260428400E-001  7.860524177161000E-001  8.054679124336900E-001  8.253629698708000E-001 
 8.457494352266099E-001  8.666394462767100E-001  8.880454405997400E-001  9.099801629825600E-001 
 9.324566730082300E-001  9.554883528315300E-001  9.790889151464700E-001  1.003272411350600E+000 
 1.028053239910900E+000  1.053446154936700E+000  1.079466274963700E+000  1.106129091955300E+000 
 1.133450480526600E+000  1.161446707395600E+000  1.190134441068300E+000  1.219530761762600E+000 
 1.249653171578200E+000  1.280519604916200E+000  1.312148439157600E+000  1.344558505604800E+000 
 1.377769100693200E+000  1.411799997480300E+000  1.446671457418100E+000  1.482404242416300E+000 
 1.519019627204000E+000  1.556539411996000E+000  1.594985935472300E+000  1.634382088078400E+000 
 1.674751325654000E+000  1.716117683397600E+000  1.758505790177500E+000  1.801940883194900E+000 
 1.846448823009800E+000  1.892056108938200E+000  1.938789894829000E+000  1.986678005231200E+000 
 2.035748951960400E+000  2.086031951073900E+000  2.137556940265400E+000  2.190354596689900E+000 
 2.244456355228200E+000  2.299894427202300E+000  2.356701819554200E+000  2.414912354497200E+000 
 2.474560689653300E+000  2.535682338687700E+000  2.598313692453300E+000  2.662492040656900E+000 
 2.728255594061100E+000  2.795643507234400E+000  2.864695901863100E+000  2.935453890639100E+000 
 3.007959601737900E+000  3.082256203900900E+000  3.158387932137200E+000  3.236400114061000E+000 
 3.316339196878300E+000  3.398252775041200E+000  3.482189618584700E+000  3.568199702163800E+000 
 3.656334234807200E+000  3.746645690406900E+000  3.839187838960000E+000  3.934015778582300E+000 
 4.031185968313300E+000  4.130756261730600E+000  4.232785941395400E+000  4.337335754147800E+000 
 4.444467947275300E+000  4.554246305573000E+000  4.666736189320600E+000  4.782004573196900E+000 
 4.900120086154800E+000  5.021153052282800E+000  5.145175532674200E+000  5.272261368331300E+000 
 5.402486224129100E+000  5.535927633865100E+000  5.672665046421500E+000  5.812779873068100E+000 
 5.956355535932900E+000  6.103477517670500E+000  6.254233412356900E+000  6.408712977642100E+000 
 6.567008188189900E+000  6.729213290438200E+000  6.895424858712000E+000  7.065741852722200E+000 
 7.240265676484400E+000  7.419100238693600E+000  7.602352014589300E+000  7.790130109349700E+000 
 7.982546323050600E+000  8.179715217229999E+000  8.381754183095600E+000  8.588783511418001E+000 
 8.800926464150001E+000  9.018309347814499E+000  9.241061588705600E+000  9.469315809946600E+000 
 9.703207910452299E+000  9.942877145840400E+000  1.018846621134300E+001  1.044012132676300E+001 
 1.069799232353400E+001  1.096223273392500E+001  1.123299988245300E+001  1.151045497955000E+001 
 1.179476321754500E+001  1.208609386901800E+001  1.238462038758300E+001  1.269052051115600E+001 
 1.300397636778200E+001  1.332517458406600E+001  1.365430639629200E+001  1.399156776428100E+001 
 1.433715948805800E+001  1.469128732741300E+001  1.505416212440000E+001  1.542599992887300E+001 
 1.580702212711600E+001  1.619745557365600E+001  1.659753272632500E+001  1.700749178466600E+001 
 1.742757683174700E+001  1.785803797949100E+001  1.829913151758400E+001  1.875112006606900E+001 
 1.921427273170100E+001  1.968886526817400E+001  2.017518024029800E+001  2.067350719223300E+001 
 2.118414281988100E+001  2.170739114753200E+001  2.224356370887600E+001  2.279297973248500E+001 
 2.335596633187800E+001  2.393285870027500E+001  2.452400031017200E+001  2.512974311783300E+001 
 2.575044777284400E+001  2.638648383283300E+001  2.703822998350400E+001  2.770607426409600E+001 
 2.839041429842000E+001  2.909165753159100E+001  2.981022147262100E+001  3.054653394299500E+001 
 3.130103333138700E+001  3.207416885467200E+001  3.286640082538200E+001  3.367820092576900E+001 
 3.451005248863600E+001  3.536245078510500E+001  3.623590331949700E+001  3.713093013148900E+001 
 3.804806410573600E+001  3.898785128914800E+001  3.995085121599000E+001  4.093763724102500E+001 
 4.194879688087800E+001  4.298493216383600E+001  4.404665998828300E+001  4.513461248999300E+001 
 4.624943741849600E+001  4.739179852273300E+001  4.856237594624500E+001  4.976186663211700E+001 
 5.099098473793000E+001  5.225046206095700E+001  5.354104847386300E+001  5.486351237116700E+001 
 5.621864112673500E+001  5.760724156256500E+001  5.903014042916000E+001  6.048818489776100E+001 
 6.198224306473500E+001  6.351320446843400E+001  6.508198061880501E+001  6.668950554008900E+001 
 6.833673632692900E+001  7.002465371420500E+001  7.175426266094500E+001  7.352659294867100E+001 
 7.534269979450301E+001  7.720366447942700E+001  7.911059499206900E+001
    </PP_R>
    <PP_RAB type="real" size="535" columns="4">
 4.236091462419265E-006  4.340722921541157E-006  4.447938777703166E-006  4.557802865512467E-006 
 4.670380596290575E-006  4.785738997018984E-006  4.903946750245181E-006  5.025074234976367E-006 
 5.149193568580167E-006  5.276378649724275E-006  5.406705202372386E-006  5.540250820871034E-006 
 5.677095016146387E-006  5.817319263045397E-006  5.961007048842528E-006  6.108243922948914E-006 
 6.259117547845664E-006  6.413717751277651E-006  6.572136579734168E-006  6.734468353253507E-006 
 6.900809721578817E-006  7.071259721701815E-006  7.245919836828048E-006  7.424894056797592E-006 
 7.608288940000501E-006  7.796213676818469E-006  7.988780154635879E-006  8.186103024455406E-006 
 8.388299769159382E-006  8.595490773457682E-006  8.807799395562150E-006  9.025352040632450E-006 
 9.248278236036060E-006  9.476710708466305E-006  9.710785462965294E-006  9.950641863900559E-006 
 1.019642271793882E-005  1.044827435907203E-005  1.070634673574108E-005  1.097079350011398E-005 
 1.124177209956669E-005  1.151944387042598E-005  1.180397413402549E-005  1.209553229513604E-005 
 1.239429194282575E-005  1.270043095381360E-005  1.301413159837271E-005  1.333558064885250E-005 
 1.366496949087926E-005  1.400249423730405E-005  1.434835584496548E-005  1.470276023433600E-005 
 1.506591841212401E-005  1.543804659690349E-005  1.581936634784714E-005  1.621010469663890E-005 
 1.661049428264600E-005  1.702077349142730E-005  1.744118659666548E-005  1.787198390560310E-005 
 1.831342190807145E-005  1.876576342920092E-005  1.922927778590211E-005  1.970424094721384E-005 
 2.019093569861026E-005  2.068965181036569E-005  2.120068621008186E-005  2.172434315947089E-005 
 2.226093443550984E-005  2.281077951606700E-005  2.337420577011365E-005  2.395154865263545E-005 
 2.454315190435507E-005  2.514936775639208E-005  2.577055713997509E-005  2.640708990133447E-005 
 2.705934502189624E-005  2.772771084393707E-005  2.841258530178299E-005  2.911437615873714E-005 
 2.983350124985624E-005  3.057038873072937E-005  3.132547733237872E-005  3.209921662248721E-005 
 3.289206727306282E-005  3.370450133470795E-005  3.453700251767441E-005  3.539006647986257E-005 
 3.626420112191361E-005  3.715992688962420E-005  3.807777708379813E-005  3.901829817776946E-005 
 3.998205014276029E-005  4.096960678128573E-005  4.198155606878403E-005  4.301850050368178E-005 
 4.408105746612343E-005  4.516985958553610E-005  4.628555511730043E-005  4.742880832869813E-005 
 4.860029989441474E-005  4.980072730180702E-005  5.103080526616225E-005  5.229126615623708E-005 
 5.358286043029573E-005  5.490635708292321E-005  5.626254410287199E-005  5.765222894221342E-005 
 5.907623899708611E-005  6.053542210031514E-005  6.203064702619194E-005  6.356280400773972E-005 
 6.513280526673029E-005  6.674158555681814E-005  6.839010272007023E-005  7.007933825725717E-005 
 7.181029791221099E-005  7.358401227064230E-005  7.540153737372912E-005  7.726395534685804E-005 
 7.917237504392763E-005  8.112793270751177E-005  8.313179264538802E-005  8.518514792372862E-005 
 8.728922107744466E-005  8.944526483805660E-005  9.165456287955743E-005  9.391843058268289E-005 
 9.623821581807479E-005  9.861529974878091E-005  1.010510976525752E-004  1.035470597645933E-004 
 1.061046721407785E-004  1.087254575426558E-004  1.114109763439614E-004  1.141628274596552E-004 
 1.169826492979104E-004  1.198721207355688E-004  1.228329621177365E-004  1.258669362820441E-004 
 1.289758496082112E-004  1.321615530935339E-004  1.354259434549454E-004  1.387709642582813E-004 
 1.421986070754619E-004  1.457109126702260E-004  1.493099722131800E-004  1.529979285268456E-004 
 1.567769773614569E-004  1.606493687022867E-004  1.646174081092320E-004  1.686834580895299E-004 
 1.728499395043425E-004  1.771193330100999E-004  1.814941805354494E-004  1.859770867946735E-004 
 1.905707208385027E-004  1.952778176432141E-004  2.001011797390018E-004  2.050436788785537E-004 
 2.101082577468535E-004  2.152979317132029E-004  2.206157906265186E-004  2.260650006549936E-004 
 2.316488061711715E-004  2.373705316836000E-004  2.432335838161838E-004  2.492414533364477E-004 
 2.553977172338621E-004  2.617060408495193E-004  2.681701800585105E-004  2.747939835059557E-004 
 2.815813948985680E-004  2.885364553525570E-004  2.956633057997509E-004  3.029661894530088E-004 
 3.104494543325130E-004  3.181175558545231E-004  3.259750594841319E-004  3.340266434533881E-004 
 3.422771015466660E-004  3.507313459548905E-004  3.593944101999610E-004  3.682714521319125E-004 
 3.773677569995669E-004  3.866887405974604E-004  3.962399524902150E-004  4.060270793167228E-004 
 4.160559481758492E-004  4.263325300957803E-004  4.368629435891591E-004  4.476534582957936E-004 
 4.587104987157178E-004  4.700406480339954E-004  4.816506520404154E-004  4.935474231458114E-004 
 5.057380444975168E-004  5.182297741966173E-004  5.310300496192680E-004  5.441464918448588E-004 
 5.575869101934407E-004  5.713593068752227E-004  5.854718817550398E-004  5.999330372343797E-004 
 6.147513832540678E-004  6.299357424204388E-004  6.454951552582181E-004  6.614388855931118E-004 
 6.777764260672553E-004  6.945175037911295E-004  7.116720861347522E-004  7.292503866622916E-004 
 7.472628712128352E-004  7.657202641318042E-004  7.846335546558661E-004  8.040140034558636E-004 
 8.238731493412184E-004  8.442228161299397E-004  8.650751196883586E-004  8.864424751446601E-004 
 9.083376042807324E-004  9.307735431064523E-004  9.537636496211921E-004  9.773216117668405E-004 
 1.001461455577487E-003  1.026197553530233E-003  1.051544633102430E-003  1.077517785540069E-003 
 1.104132474842920E-003  1.131404546971532E-003  1.159350239281721E-003  1.187986190191975E-003 
 1.217329449089737E-003  1.247397486482241E-003  1.278208204398359E-003  1.309779947046981E-003 
 1.342131511739042E-003  1.375282160079015E-003  1.409251629432958E-003  1.444060144679959E-003 
 1.479728430253560E-003  1.516277722480820E-003  1.553729782226076E-003  1.592106907847059E-003 
 1.631431948470898E-003  1.671728317598129E-003  1.713020007042792E-003  1.755331601216757E-003 
 1.798688291766803E-003  1.843115892573447E-003  1.888640855120017E-003  1.935290284241465E-003 
 1.983091954262251E-003  2.032074325532521E-003  2.082266561373181E-003  2.133698545439092E-003 
 2.186400899511430E-003  2.240405001729359E-003  2.295743005272076E-003  2.352447857502300E-003 
 2.410553319582610E-003  2.470093986576364E-003  2.531105308044720E-003  2.593623609153560E-003 
 2.657686112299647E-003  2.723330959273336E-003  2.790597233967306E-003  2.859524985646482E-003 
 2.930155252791856E-003  3.002530087535751E-003  3.076692580697808E-003  3.152686887441230E-003 
 3.230558253560974E-003  3.310353042423908E-003  3.392118762571672E-003  3.475904096007223E-003 
 3.561758927178729E-003  3.649734372680086E-003  3.739882811685145E-003  3.832257917133931E-003 
 3.926914687686986E-003  4.023909480472945E-003  4.123300044640572E-003  4.225145555743324E-003 
 4.329506650970112E-003  4.436445465249073E-003  4.546025668240730E-003  4.658312502246142E-003 
 4.773372821051770E-003  4.891275129731793E-003  5.012089625435932E-003  5.135888239184263E-003 
 5.262744678692187E-003  5.392734472255825E-003  5.525935013720523E-003  5.662425608559545E-003 
 5.802287521090787E-003  5.945604022861750E-003  6.092460442226451E-003  6.242944215149646E-003 
 6.397144937263748E-003  6.555154417214051E-003  6.717066731319360E-003  6.882978279582904E-003 
 7.052987843088680E-003  7.227196642812990E-003  7.405708399890450E-003  7.588629397367664E-003 
 7.776068543482623E-003  7.968137436506675E-003  8.164950431188341E-003  8.366624706838757E-003 
 8.573280337097549E-003  8.785040361424001E-003  9.002030858351134E-003  9.224381020552447E-003 
 9.452223231760112E-003  9.685693145584425E-003  9.924929766280359E-003  1.017007553150758E-002 
 1.042127639713593E-002  1.067868192414510E-002  1.094244536767135E-002  1.121272376825300E-002 
 1.148967804532892E-002  1.177347309304852E-002  1.206427787844673E-002  1.236226554204439E-002 
 1.266761350093274E-002  1.298050355440584E-002  1.330112199219970E-002  1.362965970540711E-002 
 1.396631230013058E-002  1.431128021394375E-002  1.466476883522827E-002  1.502698862545831E-002 
 1.539815524450730E-002  1.577848967904653E-002  1.616821837411887E-002  1.656757336795979E-002 
 1.697679243014840E-002  1.739611920317305E-002  1.782580334749142E-002  1.826610069017432E-002 
 1.871727337722157E-002  1.917959002963899E-002  1.965332590337113E-002  2.013876305318435E-002 
 2.063619050059803E-002  2.114590440596287E-002  2.166820824479004E-002  2.220341298843651E-002 
 2.275183728925091E-002  2.331380767029533E-002  2.388965871975165E-002  2.447973329012981E-002 
 2.508438270239456E-002  2.570396695514373E-002  2.633885493893733E-002  2.698942465592899E-002 
 2.765606344493053E-002  2.833916821202015E-002  2.903914566685775E-002  2.975641256482701E-002 
 3.049139595517980E-002  3.124453343527319E-002  3.201627341112370E-002  3.280707536437863E-002 
 3.361741012587784E-002  3.444776015598649E-002  3.529861983184025E-002  3.617049574168604E-002 
 3.706390698650611E-002  3.797938548907431E-002  3.891747631065441E-002  3.987873797552597E-002 
 4.086374280352301E-002  4.187307725076871E-002  4.290734225886220E-002  4.396715361265648E-002 
 4.505314230688875E-002  4.616595492187032E-002  4.730625400844116E-002  4.847471848244780E-002 
 4.967204402896400E-002  5.089894351648131E-002  5.215614742133779E-002  5.344440426264347E-002 
 5.476448104793222E-002  5.611716372981525E-002  5.750325767394177E-002  5.892358813848841E-002 
 6.037900076550954E-002  6.187036208441674E-002  6.339856002790216E-002  6.496450446059143E-002 
 6.656912772076742E-002  6.821338517547015E-002  6.989825578930452E-002  7.162474270729989E-002 
 7.339387385217054E-002  7.520670253632095E-002  7.706430808896680E-002  7.896779649876455E-002 
 8.091830107228389E-002  8.291698310876944E-002  8.496503259155561E-002  8.706366889656844E-002 
 8.921414151831257E-002  9.141773081381396E-002  9.367574876491638E-002  9.598953975940952E-002 
 9.836048139146734E-002  1.007899852818357E-001  1.032794979182983E-001  1.058305015168787E-001 
 1.084445149043468E-001  1.111230944224841E-001  1.138678348547182E-001  1.166803703756317E-001 
 1.195623755239083E-001  1.225155661993483E-001  1.255417006844725E-001  1.286425806913801E-001 
 1.318200524344576E-001  1.350760077295890E-001  1.384123851205082E-001  1.418311710329845E-001 
 1.453344009574996E-001  1.489241606611513E-001  1.526025874294802E-001  1.563718713389880E-001 
 1.602342565610620E-001  1.641920426981205E-001  1.682475861527635E-001  1.724033015307370E-001 
 1.766616630785453E-001  1.810252061565862E-001  1.854965287486532E-001  1.900782930087460E-001 
 1.947732268460610E-001  1.995841255491600E-001  2.045138534502247E-001  2.095653456304438E-001 
 2.147416096675152E-001  2.200457274263026E-001  2.254808568937343E-001  2.310502340590088E-001 
 2.367571748402668E-001  2.426050770588197E-001  2.485974224621809E-001  2.547377787969926E-001 
 2.610298019332771E-001  2.674772380410220E-001  2.740839258206366E-001  2.808537987884163E-001 
 2.877908876184930E-001  2.948993225426609E-001  3.021833358094709E-001  3.096472642039575E-001 
 3.172955516298061E-001  3.251327517550571E-001  3.331635307233965E-001  3.413926699322787E-001 
 3.498250688795879E-001  3.584657480809130E-001  3.673198520585090E-001  3.763926524043620E-001 
 3.856895509187458E-001  3.952160828264445E-001  4.049779200722503E-001  4.149808746980538E-001 
 4.252309023030896E-001  4.357341055899722E-001  4.464967379980341E-001  4.575252074266020E-001 
 4.688260800500414E-001  4.804060842272770E-001  4.922721145076933E-001  5.044312357360246E-001 
 5.168906872587006E-001  5.296578872339890E-001  5.427404370486675E-001  5.561461258437639E-001 
 5.698829351521200E-001  5.839590436503678E-001  5.983828320285370E-001  6.131628879796358E-001 
 6.283080113127456E-001  6.438272191921645E-001  6.597297515062115E-001  6.760250763684015E-001 
 6.927228957547213E-001  7.098331512798635E-001  7.273660301164688E-001  7.453319710603521E-001 
 7.637416707455433E-001  7.826060900129520E-001  8.019364604362621E-001  8.217442910090393E-001 
 8.420413749969750E-001  8.628397969593926E-001  8.841519399442873E-001  9.059904928609217E-001 
 9.283684580345675E-001  9.512991589480290E-001  9.747962481740464E-001  9.988737155039465E-001 
 1.023545896276886E+000  1.048827479914933E+000  1.074733518668838E+000  1.101279436579944E+000 
 1.128481038663473E+000  1.156354520318464E+000  1.184916476970342E+000  1.214183913951504E+000 
 1.244174256626099E+000  1.274905360764766E+000  1.306395523175665E+000  1.338663492598094E+000 
 1.371728480865271E+000  1.405610174342635E+000  1.440328745648889E+000  1.475904865666435E+000 
 1.512359715848379E+000  1.549715000829835E+000  1.587992961350348E+000  1.627216387495690E+000 
 1.667408632266829E+000  1.708593625483840E+000  1.750795888033270E+000  1.794040546467708E+000 
 1.838353347965456E+000  1.883760675660197E+000  1.930289564349008E+000
    </PP_RAB>
  </PP_MESH>
  <PP_LOCAL type="real" size="535" columns="4">
-5.328682716915000E+001 -5.328682739941600E+001 -5.328682762389000E+001 -5.328682784270000E+001 
-5.328682805596800E+001 -5.328682826381600E+001 -5.328682846636000E+001 -5.328682866371400E+001 
-5.328682885598600E+001 -5.328682904328200E+001 -5.328682922570800E+001 -5.328682940336000E+001 
-5.328682957633600E+001 -5.328682974473000E+001 -5.328682990863000E+001 -5.328683006812200E+001 
-5.328683022329200E+001 -5.328683037422000E+001 -5.328683052098000E+001 -5.328683066365000E+001 
-5.328683080229800E+001 -5.328683093699200E+001 -5.328683106780000E+001 -5.328683119477800E+001 
-5.328683131799000E+001 -5.328683143748800E+001 -5.328683155332800E+001 -5.328683166555400E+001 
-5.328683177421600E+001 -5.328683187935600E+001 -5.328683198101200E+001 -5.328683207922400E+001 
-5.328683217402200E+001 -5.328683226543800E+001 -5.328683235349600E+001 -5.328683243822400E+001 
-5.328683251963800E+001 -5.328683259775400E+001 -5.328683267258800E+001 -5.328683274414600E+001 
-5.328683281243400E+001 -5.328683287745400E+001 -5.328683293920600E+001 -5.328683299768000E+001 
-5.328683305286600E+001 -5.328683310475000E+001 -5.328683315331400E+001 -5.328683319853400E+001 
-5.328683324038200E+001 -5.328683327882400E+001 -5.328683331382200E+001 -5.328683334533600E+001 
-5.328683337331400E+001 -5.328683339770600E+001 -5.328683341845000E+001 -5.328683343548200E+001 
-5.328683344873200E+001 -5.328683345812000E+001 -5.328683346356400E+001 -5.328683346497200E+001 
-5.328683346224600E+001 -5.328683345528200E+001 -5.328683344396400E+001 -5.328683342817200E+001 
-5.328683340777800E+001 -5.328683338264200E+001 -5.328683335261800E+001 -5.328683331754800E+001 