<UPF version="2.0.1">
  <PP_INFO>
    Generated using FHI98PP, converted with fhi2upf.x v.5.0.1
    Author: Abinit web site
    Generation date: 10-Jul-2012, PG
    Pseudopotential type: SL
    Element: Lr
    Functional: SLA-PW

    Suggested minimum cutoff for wavefunctions:   0. Ry
    Suggested minimum cutoff for charge density:   0. Ry
    The Pseudo was generated with a Non-Relativistic Calculation
    L component and cutoff radius for Local Potential:  0   0.0000

    Valence configuration: 
    nl pn  l   occ       Rcut    Rcut US       E pseu
    7s  7  0  2.00      0.000      0.000     0.000000
    7p  7  1  0.00      0.000      0.000     0.000000
    6d  6  2  1.00      0.000      0.000     0.000000
    5f  5  3 14.00      0.000      0.000     0.000000

    Generation configuration: not available.
    Comment:
    lawrencium, fhi98PP : Trouiller-Martins-type, LDA Ceperley/Alder Perdew/Wang (19
  </PP_INFO>
  <!--                               -->
  <!-- END OF HUMAN READABLE SECTION -->
  <!--                               -->
  <PP_HEADER generated="Generated using FHI98PP, converted with fhi2upf.x v.5.0.1"
             author="Abinit web site"
             date="10-Jul-2012, PG"
             comment="lawrencium, fhi98PP : Trouiller-Martins-type, LDA Ceperley/Alder Perdew/Wang (19"
             element="Lr"
             pseudo_type="SL"
             relativistic="no"
             is_ultrasoft="F"
             is_paw="F"
             is_coulomb="F"
             has_so="F"
             has_wfc="F"
             has_gipaw="F"
             paw_as_gipaw="F"
             core_correction="T"
             functional="SLA-PW"
             z_valence="1.700000000000000E+001"
             total_psenergy="0.000000000000000E+000"
             wfc_cutoff="0.000000000000000E+000"
             rho_cutoff="0.000000000000000E+000"
             l_max="3"
             l_max_rho="0"
             l_local="0"
             mesh_size="577"
             number_of_wfc="4"
             number_of_proj="3"/>
  <PP_MESH dx="2.439988682353512E-002" mesh="577" xmin="-5.075173815233834E+000" rmax="7.704826216660599E+001"
zmesh="1.030000000000000E+002">
    <PP_R type="real" size="577" columns="4">
 6.067961165048500E-005  6.217839805825200E-005  6.371420449029100E-005  6.528794534120100E-005 
 6.690055759112900E-005  6.855300136363000E-005  7.024626049731200E-005  7.198134313159500E-005 
 7.375928230694600E-005  7.558113657992699E-005  7.744799065345100E-005  7.936095602259200E-005 
 8.132117163635001E-005  8.332980457576800E-005  8.538805074878900E-005  8.749713560228401E-005 
 8.965831485166000E-005  9.187287522849601E-005  9.414213524664000E-005  9.646744598723200E-005 
 9.885019190311700E-005  1.012917916431200E-004  1.037936988967100E-004  1.063574032594600E-004 
 1.089844311199700E-004  1.116763465686300E-004  1.144347523288700E-004  1.172612907114000E-004 
 1.201576445919700E-004  1.231255384133900E-004  1.261667392122000E-004  1.292830576707400E-004 
 1.324763491952100E-004  1.357485150203300E-004  1.391015033413300E-004  1.425373104738700E-004 
 1.460579820425700E-004  1.496656141990200E-004  1.533623548697400E-004  1.571504050350200E-004 
 1.610320200393800E-004  1.650095109343600E-004  1.690852458544400E-004  1.732616514270400E-004 
 1.775412142172900E-004  1.819264822084600E-004  1.864200663190000E-004  1.910246419570800E-004 
 1.957429506134200E-004  2.005778014935800E-004  2.055320731904700E-004  2.106087153982700E-004 
 2.158107506686100E-004  2.211412762101200E-004  2.266034657325100E-004  2.322005713361100E-004 
 2.379359254481100E-004  2.438129428066800E-004  2.498351224940000E-004  2.560060500196000E-004 
 2.623293994550900E-004  2.688089356216300E-004  2.754485163314800E-004  2.822520946848700E-004 
 2.892237214235900E-004  2.963675473427500E-004  3.036878257621100E-004  3.111889150584400E-004 
 3.188752812603800E-004  3.267515007075100E-004  3.348222627749900E-004  3.430923726655300E-004 
 3.515667542703700E-004  3.602504531008500E-004  3.691486392924400E-004  3.782666106829600E-004 
 3.876097959668300E-004  3.971837579272100E-004  4.069941967480100E-004  4.170469534076900E-004 
 4.273480131568600E-004  4.379035090818300E-004  4.487197257561500E-004  4.598031029823300E-004 
 4.711602396260000E-004  4.827978975447600E-004  4.947230056141100E-004  5.069426638527800E-004 
 5.194641476499500E-004  5.322949120969000E-004  5.454425964256900E-004  5.589150285574100E-004 
 5.727202297627700E-004  5.868664194379200E-004  6.013620199980300E-004  6.162156618919800E-004 
 6.314361887407200E-004  6.470326626026100E-004  6.630143693689000E-004  6.793908242923100E-004 
 6.961717776523300E-004  7.133672205603400E-004  7.309873909081800E-004  7.490427794636100E-004 
 7.675441361163600E-004  7.865024762784400E-004  8.059290874425100E-004  8.258355359023400E-004 
 8.462336736391300E-004  8.671356453780200E-004  8.885538958188600E-004  9.105011770455800E-004 
 9.329905561186100E-004  9.560354228547400E-004  9.796494977992499E-004  1.003846840394900E-003 
 1.028641857352600E-003  1.054049311229300E-003  1.080084329216600E-003  1.106762412148300E-003 
 1.134099443728300E-003  1.162111699988400E-003  1.190815858978100E-003  1.220229010694900E-003 
 1.250368667259100E-003  1.281252773340400E-003  1.312899716841900E-003  1.345328339847900E-003 
 1.378557949842100E-003  1.412608331203200E-003  1.447499756983900E-003  1.483253000981400E-003 
 1.519889350105700E-003  1.557430617053300E-003  1.595899153294500E-003  1.635317862380900E-003 
 1.675710213581700E-003  1.717100255857100E-003  1.759512632176800E-003  1.802972594191600E-003 
 1.847506017268100E-003  1.893139415894600E-003  1.939899959467200E-003  1.987815488466100E-003 
 2.036914531031200E-003  2.087226319947600E-003  2.138780810050400E-003  2.191608696058600E-003 
 2.245741430851200E-003  2.301211244193300E-003  2.358051161924800E-003  2.416295025624400E-003 
 2.475977512757300E-003  2.537134157322400E-003  2.599801371008300E-003  2.664016464872200E-003 
 2.729817671554500E-003  2.797244168041900E-003  2.866336098992600E-003  2.937134600637700E-003 
 3.009681825273400E-003  3.084020966357700E-003  3.160196284226700E-003  3.238253132447100E-003 
 3.318237984818500E-003  3.400198463043600E-003  3.484183365080700E-003  3.570242694198200E-003 
 3.658427688744900E-003  3.748790852656900E-003  3.841385986717600E-003  3.936268220589500E-003 
 4.033494045638000E-003  4.133121348565300E-003  4.235209445874900E-003  4.339819119188000E-003 
 4.447012651431900E-003  4.556853863922300E-003  4.669408154361200E-003  4.784742535773900E-003 
 4.902925676407500E-003  5.024027940614800E-003  5.148121430747900E-003  5.275280030087400E-003 
 5.405579446830600E-003  5.539097259167300E-003  5.675912961468700E-003  5.816108011617000E-003 
 5.959765879503900E-003  6.106972096727700E-003  6.257814307516900E-003  6.412382320912500E-003 
 6.570768164239100E-003  6.733066137895800E-003  6.899372871501800E-003  7.069787381427900E-003 
 7.244411129749200E-003  7.423348084654000E-003  7.606704782344900E-003  7.794590390468800E-003 
 7.987116773113400E-003  8.184398557409300E-003  8.386553201777299E-003  8.593701065861201E-003 
 8.805965482188000E-003  9.023472829598001E-003  9.246352608489100E-003  9.474737517918800E-003 
 9.708763534611401E-003  9.948569993916301E-003  1.019429967276600E-002  1.044609887468300E-002 
 1.070411751688800E-002  1.096850921955500E-002  1.123943139727800E-002  1.151704535279100E-002 
 1.180151637300500E-002  1.209301382741800E-002  1.239171126895500E-002  1.269778653729900E-002 
 1.301142186477000E-002  1.333280398483000E-002  1.366212424325500E-002  1.399957871206300E-002 
 1.434536830625100E-002  1.469969890341600E-002  1.506278146633000E-002  1.543483216854800E-002 
 1.581607252311200E-002  1.620672951443200E-002  1.660703573343900E-002  1.701722951605500E-002 
 1.743755508510100E-002  1.786826269570300E-002  1.830960878428700E-002  1.876185612125900E-002 
 1.922527396745400E-002  1.970013823445000E-002  2.018673164884100E-002  2.068534392056800E-002 
 2.119627191540600E-002  2.171981983171600E-002  2.225629938156000E-002  2.280602997628400E-002 
 2.336933891669800E-002  2.394656158794100E-002  2.453804165916300E-002  2.514413128814400E-002 
 2.576519133096100E-002  2.640159155683600E-002  2.705371086829000E-002  2.772193752673700E-002 
 2.840666938364700E-002  2.910831411742300E-002  2.982728947612400E-002  3.056402352618400E-002 
 3.131895490728100E-002  3.209253309349000E-002  3.288521866090000E-002  3.369748356182400E-002 
 3.452981140580100E-002  3.538269774752400E-002  3.625665038188800E-002  3.715218964632100E-002 
 3.806984873058500E-002  3.901017399423000E-002  3.997372529188800E-002  4.096107630659700E-002 
 4.197281489137000E-002  4.300954341918700E-002  4.407187914164100E-002  4.516045455643900E-002 
 4.627591778398400E-002  4.741893295324800E-002  4.859018059719300E-002  4.979035805794400E-002 
 5.102017990197500E-002  5.228037834555400E-002  5.357170369068900E-002  5.489492477184900E-002 
 5.625082941371400E-002  5.764022490023200E-002  5.906393845526800E-002  6.052281773511300E-002 
 6.201773133317000E-002  6.354956929710000E-002  6.511924365873800E-002  6.672768897710900E-002 
 6.837586289484400E-002  7.006474670834600E-002  7.179534595204200E-002  7.356869099705800E-002 
 7.538583766468500E-002  7.724786785500300E-002  7.915589019102100E-002  8.111104067874000E-002 
 8.311448338350499E-002  8.516741112307701E-002  8.727104617781700E-002  8.942664101840900E-002 
 9.163547905156399E-002  9.389887538413701E-002  9.621817760612600E-002  9.859476659299700E-002 
 1.010300573278400E-001  1.035254997438400E-001  1.060825795875100E-001  1.087028193033300E-001 
 1.113877789401200E-001  1.141390570799400E-001  1.169582917898100E-001  1.198471615970200E-001 
 1.228073864884700E-001  1.258407289347300E-001  1.289489949394200E-001  1.321340351144300E-001 
 1.353977457817500E-001  1.387420701025600E-001  1.421689992340900E-001  1.456805735151800E-001 
 1.492788836810000E-001  1.529660721079200E-001  1.567443340889900E-001  1.606159191409900E-001 
 1.645831323437700E-001  1.686483357126600E-001  1.728139496047600E-001  1.770824541600000E-001 
 1.814563907777500E-001  1.859383636299600E-001  1.905310412116200E-001  1.952371579295500E-001 
 2.000595157304100E-001  2.050009857689500E-001  2.100645101174400E-001  2.152531035173400E-001 
 2.205698551742200E-001  2.260179305970300E-001  2.316005734827700E-001  2.373211076478000E-001 
 2.431829390067000E-001  2.491895576001600E-001  2.553445396728900E-001  2.616515498028100E-001 
 2.681143430829400E-001  2.747367673570800E-001  2.815227655108000E-001  2.884763778189200E-001 
 2.956017443510500E-001  3.029031074365200E-001  3.103848141902000E-001  3.180513191007000E-001 
 3.259071866824900E-001  3.339570941935400E-001  3.422058344201200E-001  3.506583185303000E-001 
 3.593195789980000E-001  3.681947725992500E-001  3.772891834824500E-001  3.866082263144700E-001 
 3.961574495044400E-001  4.059425385071900E-001  4.159693192083200E-001  4.262437613927700E-001 
 4.367719822991700E-001  4.475602502619600E-001  4.586149884434300E-001  4.699427786579800E-001 
 4.815503652908300E-001  4.934446593135200E-001  5.056327423985600E-001  5.181218711358100E-001 
 5.309194813528600E-001  5.440331925422800E-001  5.574708123980699E-001  5.712403414643000E-001 
 5.853499778984700E-001  5.998081223525600E-001  6.146233829746700E-001  6.298045805341500E-001 
 6.453607536733400E-001  6.613011642890700E-001  6.776353030470100E-001  6.943728950322700E-001 
 7.115239055395700E-001  7.290985460064000E-001  7.471072800927500E-001  7.655608299110400E-001 
 7.844701824098500E-001  8.038465959153700E-001  8.237016068344800E-001  8.440470365232901E-001 
 8.648949983254201E-001  8.862579047840500E-001  9.081484750322200E-001  9.305797423655200E-001 
 9.535650620019400E-001  9.771181190333900E-001  1.001252936573500E+000  1.025983884106900E+000 
 1.051325686044300E+000  1.077293430489600E+000  1.103902578222700E+000  1.131168971904800E+000 
 1.159108845510900E+000  1.187738833995000E+000  1.217075983194700E+000  1.247137759979600E+000 
 1.277942062651100E+000  1.309507231598500E+000  1.341852060219000E+000  1.374995806106400E+000 
 1.408958202517300E+000  1.443759470119400E+000  1.479420329031400E+000  1.515962011158500E+000 
 1.553406272834100E+000  1.591775407773100E+000  1.631092260345100E+000  1.671380239175600E+000 
 1.712663331083200E+000  1.754966115361000E+000  1.798313778410400E+000  1.842732128737100E+000 
 1.888247612317000E+000  1.934887328341200E+000  1.982679045351200E+000  2.031651217771400E+000 
 2.081833002850300E+000  2.133254278020700E+000  2.185945658687800E+000  2.239938516457400E+000 
 2.295264997813900E+000  2.351958043259900E+000  2.410051406928500E+000  2.469579676679600E+000 
 2.530578294693600E+000  2.593083578572500E+000  2.657132742963300E+000  2.722763921714400E+000 
 2.790016190580800E+000  2.858929590488100E+000  2.929545151373200E+000  3.001904916612100E+000 
 3.076051968052400E+000  3.152030451663300E+000  3.229885603819400E+000  3.309663778233700E+000 
 3.391412473556100E+000  3.475180361653000E+000  3.561017316585800E+000  3.648974444305500E+000 
 3.739104113079800E+000  3.831459984672900E+000  3.926097046294300E+000  4.023071643337800E+000 
 4.122441512928200E+000  4.224265818297500E+000  4.328605184009500E+000  4.435521732054500E+000 
 4.545079118836300E+000  4.657342573071500E+000  4.772378934626400E+000  4.890256694311600E+000 
 5.011046034661100E+000  5.134818871717300E+000  5.261648897848700E+000  5.391611625625600E+000 
 5.524784432778500E+000  5.661246608268100E+000  5.801079399492400E+000  5.944366060659800E+000 
 6.091191902358100E+000  6.241644342346400E+000  6.395812957602300E+000  6.553789537655100E+000 
 6.715668139235200E+000  6.881545142274300E+000  7.051519307288500E+000  7.225691834178500E+000 
 7.404166422482700E+000  7.587049333118000E+000  7.774449451646000E+000  7.966478353101700E+000 
 8.163250368423300E+000  8.364882652523400E+000  8.571495254040700E+000  8.783211186815500E+000 
 9.000156503129800E+000  9.222460368757099E+000  9.450255139865400E+000  9.683676441820101E+000 
 9.922863249933100E+000  1.016795797220600E+001  1.041910653412000E+001  1.067645846551300E+001 
 1.094016698961100E+001  1.121038911425400E+001  1.148728572537600E+001  1.177102168279300E+001 
 1.206176591835800E+001  1.235969153654200E+001  1.266497591749400E+001  1.297780082265600E+001 
 1.329835250297600E+001  1.362682180979900E+001  1.396340430850100E+001  1.430830039492100E+001 
 1.466171541467600E+001  1.502385978541800E+001  1.539494912211800E+001  1.577520436543500E+001 
 1.616485191326100E+001  1.656412375551800E+001  1.697325761228000E+001  1.739249707530300E+001 
 1.782209175306300E+001  1.826229741936400E+001  1.871337616562200E+001  1.917559655691300E+001 
 1.964923379186800E+001  2.013456986652800E+001  2.063189374223100E+001  2.114150151766400E+001 
 2.166369660515000E+001  2.219878991129700E+001  2.274710002210600E+001  2.330895339265200E+001 
 2.388468454145100E+001  2.447463624962500E+001  2.507915976499100E+001  2.569861501118600E+001 
 2.633337080196200E+001  2.698380506077100E+001  2.765030504577200E+001  2.833326758040200E+001 
 2.903309928963800E+001  2.975021684209200E+001  3.048504719809200E+001  3.123802786388500E+001 
 3.200960715212300E+001  3.280024444878000E+001  3.361041048666500E+001  3.444058762568600E+001 
 3.529127014004000E+001  3.616296451249900E+001  3.705618973595800E+001  3.797147762243600E+001 
 3.890937311971000E+001  3.987043463576700E+001  4.085523437127000E+001  4.186435866024100E+001 
 4.289840831914900E+001  4.395799900463200E+001  4.504376158004600E+001  4.615634249107300E+001 
 4.729640415060300E+001  4.846462533312200E+001  4.966170157885100E+001  5.088834560784800E+001 
 5.214528774436200E+001  5.343327635164800E+001  5.475307827753400E+001  5.610547931098900E+001 
 5.749128464997000E+001  5.891131938082400E+001  6.036642896953100E+001  6.185747976507800E+001 
 6.338535951527500E+001  6.495097789530300E+001  6.655526704931700E+001  6.819918214543500E+001 
 6.988370194442700E+001  7.160982938245400E+001  7.337859216820100E+001  7.519104339475599E+001 
 7.704826216660599E+001
    </PP_R>
    <PP_RAB type="real" size="577" columns="4">
 1.480575656767897E-006  1.517145875490065E-006  1.554619378614674E-006  1.593018477266452E-006 
 1.632366033654941E-006  1.672685474686221E-006  1.714000805910979E-006  1.756336625816965E-006 
 1.799718140474659E-006  1.844171178544369E-006  1.889722206654410E-006  1.936398345158792E-006 
 1.984227384284215E-006  2.033237800676038E-006  2.083458774352725E-006  2.134920206079235E-006 
 2.187652735169382E-006  2.241687757728066E-006  2.297057445343953E-006  2.353794764243948E-006 
 2.411933494920783E-006  2.471508252245229E-006  2.532554506075806E-006  2.595108602375909E-006 
 2.659207784854627E-006  2.724890217140457E-006  2.792195005503700E-006  2.861162222139810E-006 
 2.931832929026625E-006  3.004249202373542E-006  3.078454157672151E-006  3.154491975366620E-006 
 3.232407927158242E-006  3.312248402959009E-006  3.394060938512044E-006  3.477894243693516E-006 
 3.563798231512633E-006  3.651824047830959E-006  3.742024101812486E-006  3.834452097127192E-006 
 3.929163063926112E-006  4.026213391605266E-006  4.125660862377947E-006  4.227564685678568E-006 
 4.331985533414881E-006  4.438985576090299E-006  4.548628519819512E-006  4.660979644259070E-006 
 4.776105841472273E-006  4.894075655756846E-006  5.014959324454005E-006  5.138828819767906E-006 
 5.265757891616240E-006  5.395822111539048E-006  5.529098917694063E-006  5.665667660961277E-006 
 5.805609652186975E-006  5.949008210596033E-006  6.095948713397633E-006  6.246518646618511E-006 
 6.400807657190132E-006  6.558907606322711E-006  6.720912624198777E-006  6.886919166016547E-006 
 7.057026069417246E-006  7.231334613331788E-006  7.409948578280938E-006  7.592974308164620E-006 
 7.780520773576201E-006  7.972699636683499E-006  8.169625317709692E-006  8.371415063057066E-006 
 8.578189015114610E-006  8.790070283787986E-006  9.007185019797525E-006  9.229662489786446E-006 
 9.457635153284193E-006  9.691238741570295E-006  9.930612338487029E-006  1.017589846324776E-005 
 1.042724315528998E-005  1.068479606122554E-005  1.094871052393778E-005  1.121914367387912E-005 
 1.149625652262409E-005  1.178021405873285E-005  1.207118534598341E-005  1.236934362402924E-005 
 1.267486641154292E-005  1.298793561190793E-005  1.330873762152198E-005  1.363746344077370E-005 
 1.397430878776062E-005  1.431947421481854E-005  1.467316522792440E-005  1.503559240905409E-005 
 1.540697154155793E-005  1.578752373863427E-005  1.617747557497867E-005  1.657705922168060E-005 
 1.698651258445611E-005  1.740607944529211E-005  1.783600960759082E-005  1.827655904489826E-005 
 1.872799005330722E-005  1.919057140762405E-005  1.966457852139218E-005  2.015029361087057E-005 
 2.064800586305913E-005  2.115801160787678E-005  2.168061449459140E-005  2.221612567260766E-005 
 2.276486397672118E-005  2.332715611694620E-005  2.390333687303472E-005  2.449374929379888E-005 
 2.509874490135440E-005  2.571868390042007E-005  2.635393539275889E-005  2.700487759696125E-005 
 2.767189807360466E-005  2.835539395602296E-005  2.905577218673640E-005  2.977344975974979E-005 
 3.050885396881648E-005  3.126242266184626E-005  3.203460450159367E-005  3.282585923278315E-005 
 3.363665795583185E-005  3.446748340734090E-005  3.531883024750175E-005  3.619120535461499E-005 
 3.708512812687543E-005  3.800113079160899E-005  3.893975872216133E-005  3.990157076259934E-005 
 4.088713956043535E-005  4.189705190757644E-005  4.293190908969430E-005  4.399232724421055E-005 
 4.507893772714176E-005  4.619238748900163E-005  4.733333945998005E-005  4.850247294464303E-005 
 4.970048402637539E-005  5.092808598182515E-005  5.218600970557852E-005  5.347500414530522E-005 
 5.479583674769311E-005  5.614929391536297E-005  5.753618147507061E-005  5.895732515750625E-005 
 6.041357108889611E-005  6.190578629479171E-005  6.343485921627397E-005  6.500170023891581E-005 
 6.660724223481598E-005  6.825244111801601E-005  6.993827641363260E-005  7.166575184104890E-005 
 7.343589591152157E-005  7.524976254053729E-005  7.710843167528771E-005  7.901300993766733E-005 
 8.096463128312665E-005  8.296445767582191E-005  8.501367978041284E-005  8.711351767098920E-005 
 8.926522155746273E-005  9.147007252993208E-005  9.372938332142322E-005  9.604449908946179E-005 
 9.841679821696999E-005  1.008476931329302E-004  1.033386311533144E-004  1.058910953428011E-004 
 1.085066053977672E-004  1.111867185510928E-004  1.139330304993053E-004  1.167471763526376E-004 
 1.196308316085474E-004  1.225857131492794E-004  1.256135802640645E-004  1.287162356965875E-004 
 1.318955267182942E-004  1.351533462282357E-004  1.384916338800723E-004  1.419123772369107E-004 
 1.454176129546614E-004  1.490094279946429E-004  1.526899608661112E-004  1.564614028995025E-004 
 1.603259995511217E-004  1.642860517400342E-004  1.683439172180124E-004  1.725020119732975E-004 
 1.767628116690387E-004  1.811288531172638E-004  1.856027357892589E-004  1.901871233632532E-004 
 1.948847453103260E-004  1.996983985194910E-004  2.046309489629222E-004  2.096853334023064E-004 
 2.148645611373441E-004  2.201717157974354E-004  2.256099571776328E-004  2.311825231199208E-004 
 2.368927314409830E-004  2.427439819075752E-004  2.487397582606915E-004  2.548836302897228E-004 
 2.611792559578870E-004  2.676303835800435E-004  2.742408540544704E-004  2.810146031496215E-004 
 2.879556638474187E-004  2.950681687444445E-004  3.023563525124268E-004  3.098245544195035E-004 
 3.174772209136583E-004  3.253189082702301E-004  3.333542853044974E-004  3.415881361515088E-004 
 3.500253631144521E-004  3.586709895833938E-004  3.675301630260944E-004  3.766081580528303E-004 
 3.859103795567564E-004  3.954423659317871E-004  4.052097923703152E-004  4.152184742418633E-004 
 4.254743705556237E-004  4.359835875083478E-004  4.467523821198073E-004  4.577871659581692E-004 
 4.690945089573336E-004  4.806811433285770E-004  4.925539675687950E-004  5.047200505677595E-004 
 5.171866358167825E-004  5.299611457214440E-004  5.430511860207787E-004  5.564645503154790E-004 
 5.702092247082660E-004  5.842933925585739E-004  5.987254393547671E-004  6.135139577068219E-004 
 6.286677524621766E-004  6.441958459479988E-004  6.601074833429180E-004  6.764121381814940E-004 
 6.931195179945669E-004  7.102395700890309E-004  7.277824874702458E-004  7.457587149107544E-004 
 7.641789551690564E-004  7.830541753617115E-004  8.023956134931652E-004  8.222147851464407E-004 
 8.425234903395565E-004  8.633338205509366E-004  8.846581659185486E-004  9.065092226167457E-004 
 9.289000004153761E-004  9.518438304256250E-004  9.753543730371506E-004  9.994456260511526E-004 
 1.024131933014618E-003  1.049427991760083E-003  1.075348863156559E-003  1.101909980076513E-003 
 1.129127156584426E-003  1.157016597352051E-003  1.185594907306641E-003  1.214879101517124E-003 
 1.244886615324591E-003  1.275635314723114E-003  1.307143506996770E-003  1.339429951619590E-003 
 1.372513871424602E-003  1.406414964048772E-003  1.441153413660783E-003  1.476749902978201E-003 
 1.513225625581756E-003  1.550602298533642E-003  1.588902175307414E-003  1.628148059037512E-003 
 1.668363316095748E-003  1.709571890003297E-003  1.751798315686375E-003  1.795067734083842E-003 
 1.839405907115705E-003  1.884839233021470E-003  1.931394762077086E-003  1.979100212700409E-003 
 2.027983987954112E-003  2.078075192456565E-003  2.129403649710242E-003  2.181999919858083E-003 
 2.235895317878585E-003  2.291121932230171E-003  2.347712643956276E-003  2.405701146261988E-003 
 2.465121964574561E-003  2.526010477099610E-003  2.588402935883901E-003  2.652336488400441E-003 
 2.717849199663877E-003  2.784980074895551E-003  2.853769082745361E-003  2.924257179089213E-003 
 2.996486331412804E-003  3.070499543798573E-003  3.146340882530451E-003  3.224055502329108E-003 
 3.303689673236480E-003  3.385290808165440E-003  3.468907491127047E-003  3.554589506158080E-003 
 3.642387866960064E-003  3.732354847273960E-003  3.824544012001734E-003  3.919010249098224E-003 
 4.015809802250891E-003  4.115000304366461E-003  4.216640811884245E-003  4.320791839937847E-003 
 4.427515398384262E-003  4.536875028724343E-003  4.648935841933834E-003  4.763764557229672E-003 
 4.881429541793248E-003  5.002000851475515E-003  5.125550272506885E-003  5.252151364237786E-003 
 5.381879502934500E-003  5.514811926657147E-003  5.651027781245417E-003  5.790608167442315E-003 
 5.933636189178124E-003  6.080197003050691E-003  6.230377869026190E-003  6.384268202391128E-003 
 6.541959626990203E-003  6.703546029776651E-003  6.869123616712138E-003  7.038790970045005E-003 
 7.212649107005183E-003  7.390801539948188E-003  7.573354337984857E-003  7.760416190133134E-003 
 7.952098470029489E-003  8.148515302239034E-003  8.349783630204327E-003  8.556023285870448E-003 
 8.767357061031487E-003  8.983910780438951E-003  9.205813376715756E-003  9.433196967120720E-003 
 9.666196932208665E-003  9.904951996433983E-003  1.014960431074596E-002  1.040029953722150E-002 
 1.065718693579083E-002  1.092041945310488E-002  1.119015381359656E-002  1.146655061279233E-002 
 1.174977441292825E-002  1.203999384092773E-002  1.233738168879855E-002  1.264211501651201E-002 
 1.295437525741975E-002  1.327434832627812E-002  1.360222472993709E-002  1.393819968076648E-002 
 1.428247321288145E-002  1.463525030123957E-002  1.499674098368023E-002  1.536716048597727E-002 
 1.574672934998082E-002  1.613567356492531E-002  1.653422470197897E-002  1.694262005211782E-002 
 1.736110276740520E-002  1.778992200576017E-002  1.822933307930225E-002  1.867959760636100E-002 
 1.914098366723829E-002  1.961376596381900E-002  2.009822598312534E-002  2.059465216490849E-002 
 2.110334007338185E-002  2.162459257319418E-002  2.215872000975218E-002  2.270604039399316E-002 
 2.326687959172459E-002  2.384157151764024E-002  2.443045833412559E-002  2.503389065497933E-002 
 2.565222775415634E-002  2.628583777968414E-002  2.693509797284251E-002  2.760039489277170E-002 
 2.828212464662442E-002  2.898069312539557E-002  2.969651624559341E-002  3.043002019685935E-002 
 3.118164169572187E-002  3.195182824560419E-002  3.274103840327103E-002  3.354974205183160E-002 
 3.437842068051360E-002  3.522756767132040E-002  3.609768859280325E-002  3.698930150104608E-002 
 3.790293724812156E-002  3.883913979815010E-002  3.979846655116452E-002  4.078148867497770E-002 
 4.178879144524874E-002  4.282097459394748E-002  4.387865266641758E-002  4.496245538727719E-002 
 4.607302803534522E-002  4.721103182781752E-002  4.837714431396394E-002  4.957205977851947E-002 
 5.079648965504759E-002  5.205116294952720E-002  5.333682667438026E-002  5.465424629323772E-002 
 5.600420617668075E-002  5.738751006924468E-002  5.880498156795699E-002  6.025746461268469E-002 
 6.174582398861835E-002  6.327094584113645E-002  6.483373820341395E-002  6.643513153703599E-002 
 6.807607928600212E-002  6.975755844436525E-002  7.148057013794214E-002  7.324614022034888E-002 
 7.505531988379104E-002  7.690918628492081E-002  7.880884318615876E-002  8.075542161285593E-002 
 8.275008052669414E-002  8.479400751570505E-002  8.688841950134225E-002  8.903456346302616E-002 
 9.123371718056178E-002  9.348718999492237E-002  9.579632358779645E-002  9.816249278041576E-002 
 1.005871063520910E-001  1.030716078789870E-001  1.056174765935992E-001  1.082262282654603E-001 
 1.108994161036185E-001  1.136386316813765E-001  1.164455058839073E-001  1.193217098792380E-001 
 1.222689561132553E-001  1.252889993292544E-001  1.283836376126866E-001  1.315547134617209E-001 
 1.348041148842241E-001  1.381337765218637E-001  1.415456808019556E-001  1.450418591177624E-001 
 1.486243930379712E-001  1.522954155460105E-001  1.560571123099956E-001  1.599117229840530E-001 
 1.638615425417596E-001  1.679089226425408E-001  1.720562730318122E-001  1.763060629756973E-001 
 1.806608227311968E-001  1.851231450526568E-001  1.896956867354571E-001  1.943811701978239E-001 
 1.991823851017099E-001  2.041021900137232E-001  2.091435141070615E-001  2.143093589055058E-001 
 2.196028000704707E-001  2.250269892322112E-001  2.305851558662468E-001  2.362806092161437E-001 
 2.421167402637835E-001  2.480970237482881E-001  2.542250202348833E-001  2.605043782346907E-001 
 2.669388363770834E-001  2.735322256355877E-001  2.802884716087850E-001  2.872115968575271E-001 
 2.943057232999084E-001  3.015750746654297E-001  3.090239790096515E-001  3.166568712911874E-001 
 3.244782960120894E-001  3.324929099235757E-001  3.407054847986871E-001  3.491209102732153E-001 
 3.577441967569747E-001  3.665804784168599E-001  3.756350162337606E-001  3.849132011347512E-001 
 3.944205572027736E-001  4.041627449656687E-001  4.141455647663380E-001  4.243749602160589E-001 
 4.348570217333958E-001  4.455979901702191E-001  4.566042605274165E-001  4.678823857624470E-001 
 4.794390806907610E-001  4.912812259838439E-001  5.034158722656389E-001  5.158502443105976E-001 
 5.285917453450620E-001  5.416479614550800E-001  5.550266661030197E-001  5.687358247557638E-001 
 5.827835996272432E-001  5.971783545380400E-001  6.119286598951361E-001  6.270432977945392E-001 
 6.425312672500572E-001  6.584017895511467E-001  6.746643137530589E-001  6.913285223027457E-001 
 7.084043368036251E-001  7.259019239226733E-001  7.438317014435712E-001  7.622043444692306E-001 
 7.810307917776216E-001  8.003222523345181E-001  8.200902119671841E-001  8.403464402027826E-001 
 8.611029972757804E-001  8.823722413084926E-001  9.041668356688191E-001  9.264997565098348E-001 
 9.493843004956236E-001  9.728340927178695E-001  9.968630948079901E-001  1.021485613249763E+000 
 1.046716307897033E+000  1.072570200702090E+000  1.099062684659422E+000  1.126209532970506E+000 
 1.154026908434890E+000  1.182531373073210E+000  1.211739897988140E+000  1.241669873468432E+000 
 1.272339119343106E+000  1.303765895590887E+000  1.335968913211989E+000  1.368967345368323E+000 