<UPF version="2.0.1">
  <PP_INFO>
    Generated using FHI98PP, converted with fhi2upf.x v.5.0.1
    Author: Abinit web site
    Generation date: 10-Jul-2012, PG
    Pseudopotential type: SL
    Element: Lu
    Functional: SLA-PW

    Suggested minimum cutoff for wavefunctions:   0. Ry
    Suggested minimum cutoff for charge density:   0. Ry
    The Pseudo was generated with a Non-Relativistic Calculation
    L component and cutoff radius for Local Potential:  0   0.0000

    Valence configuration: 
    nl pn  l   occ       Rcut    Rcut US       E pseu
    6s  6  0  2.00      0.000      0.000     0.000000
    6p  6  1  0.00      0.000      0.000     0.000000
    5d  5  2  1.00      0.000      0.000     0.000000
    4f  4  3 14.00      0.000      0.000     0.000000

    Generation configuration: not available.
    Comment:
    lutetium, fhi98PP : Trouiller-Martins-type, LDA Ceperley/Alder Perdew/Wang (1992
  </PP_INFO>
  <!--                               -->
  <!-- END OF HUMAN READABLE SECTION -->
  <!--                               -->
  <PP_HEADER generated="Generated using FHI98PP, converted with fhi2upf.x v.5.0.1"
             author="Abinit web site"
             date="10-Jul-2012, PG"
             comment="lutetium, fhi98PP : Trouiller-Martins-type, LDA Ceperley/Alder Perdew/Wang (1992"
             element="Lu"
             pseudo_type="SL"
             relativistic="no"
             is_ultrasoft="F"
             is_paw="F"
             is_coulomb="F"
             has_so="F"
             has_wfc="F"
             has_gipaw="F"
             paw_as_gipaw="F"
             core_correction="F"
             functional="SLA-PW"
             z_valence="1.700000000000000E+001"
             total_psenergy="0.000000000000000E+000"
             wfc_cutoff="0.000000000000000E+000"
             rho_cutoff="0.000000000000000E+000"
             l_max="3"
             l_max_rho="0"
             l_local="0"
             mesh_size="563"
             number_of_wfc="4"
             number_of_proj="3"/>
  <PP_MESH dx="2.439988682353512E-002" mesh="563" xmin="-5.075173815233821E+000" rmax="7.943052200825301E+001"
zmesh="7.100000000000000E+001">
    <PP_R type="real" size="563" columns="4">
 8.802816901408500E-005  9.020246478873200E-005  9.243046566901400E-005  9.471349817103901E-005 
 9.705292157586300E-005  9.945012873878700E-005  1.019065469186400E-004  1.044236386275300E-004 
 1.070029025016300E-004  1.096458741934200E-004  1.123541272859900E-004  1.151292742299600E-004 
 1.179729673034400E-004  1.208868995958300E-004  1.238728060158500E-004  1.269324643244400E-004 
 1.300676961932500E-004  1.332803682892300E-004  1.365723933859700E-004  1.399457315026000E-004 
 1.434023910707200E-004  1.469444301301700E-004  1.505739575543800E-004  1.542931343059700E-004 
 1.581041747233300E-004  1.620093478390000E-004  1.660109787306200E-004  1.701114499052700E-004 
 1.743132027179300E-004  1.786187388250600E-004  1.830306216740400E-004  1.875514780293900E-004 
 1.921839995367100E-004  1.969309443252700E-004  2.017951386501000E-004  2.067794785747600E-004 
 2.118869316955600E-004  2.171205389084400E-004  2.224834162194800E-004  2.279787566001000E-004 
 2.336098318881200E-004  2.393799947357600E-004  2.452926806057300E-004  2.513514098166900E-004 
 2.575597896391600E-004  2.639215164432500E-004  2.704403778994000E-004  2.771202552335200E-004 
 2.839651255377800E-004  2.909790641385700E-004  2.981662470227900E-004  3.055309533242500E-004 
 3.130775678713600E-004  3.208105837977800E-004  3.287346052175900E-004  3.368543499664600E-004 
 3.451746524106400E-004  3.537004663251800E-004  3.624368678434100E-004  3.713890584791400E-004 
 3.805623682235800E-004  3.899622587187000E-004  3.995943265090500E-004  4.094643063738200E-004 
 4.195780747412600E-004  4.299416531873700E-004  4.405612120211000E-004  4.514430739580200E-004 
 4.625937178847800E-004  4.740197827165300E-004  4.857280713496300E-004  4.977255547119700E-004 
 5.100193759133500E-004  5.226168544984100E-004  5.355254908045200E-004  5.487529704274000E-004 
 5.623071687969500E-004  5.761961558662400E-004  5.904282009161300E-004  6.050117774787600E-004 
 6.199555683824900E-004  6.352684709215300E-004  6.509596021533000E-004  6.670383043264800E-004 
 6.835141504433500E-004  7.003969499593000E-004  7.176967546232901E-004  7.354238644624900E-004 
 7.535888339147100E-004  7.722024781124000E-004  7.912758793217800E-004  8.108203935410300E-004 
 8.308476572614900E-004  8.513695943958500E-004  8.723984233774300E-004  8.939466644348500E-004 
 9.160271470463900E-004  9.386530175784400E-004  9.618377471126200E-004  9.855951394663000E-004 
 1.009939339411100E-003  1.034884841094600E-003  1.060446496669600E-003  1.086639525137400E-003 
 1.113479521408200E-003  1.140982465587000E-003  1.169164732487000E-003  1.198043101379500E-003 
 1.227634765983500E-003  1.257957344703300E-003  1.289028891117500E-003  1.320867904728100E-003 
 1.353493341974900E-003  1.386924627521700E-003  1.421181665821400E-003  1.456284852967200E-003 
 1.492255088835500E-003  1.529113789529800E-003  1.566882900131100E-003  1.605584907764400E-003 
 1.645242854986200E-003  1.685880353504300E-003  1.727521598235900E-003  1.770191381712300E-003 
 1.813915108840600E-003  1.858718812029000E-003  1.904629166686100E-003  1.951673507103200E-003 
 1.999879842728700E-003  2.049276874844100E-003  2.099894013652700E-003  2.151761395789900E-003 
 2.204909902266000E-003  2.259371176851900E-003  2.315177644920200E-003  2.372362532749700E-003 
 2.430959887308600E-003  2.491004596525100E-003  2.552532410059300E-003  2.615579960587800E-003 
 2.680184785614300E-003  2.746385349819000E-003  2.814221067959500E-003  2.883732328338100E-003 
 2.954960516848000E-003  3.027948041614200E-003  3.102738358242100E-003  3.179375995690600E-003 
 3.257906582784200E-003  3.338376875379000E-003  3.420834784200800E-003  3.505329403370600E-003 
 3.591911039633800E-003  3.680631242312800E-003  3.771542833997900E-003  3.864699941997700E-003 
 3.960158030565000E-003  4.057973933920000E-003  4.158205890087800E-003  4.260913575573000E-003 
 4.366158140889600E-003  4.474002246969600E-003  4.584510102469700E-003  4.697747502000700E-003 
 4.813781865300200E-003  4.932682277373100E-003  5.054519529624200E-003  5.179366162005900E-003 
 5.307296506207400E-003  5.438386729910800E-003  5.572714882139600E-003  5.710360939728400E-003 
 5.851406854939700E-003  5.995936604256700E-003  6.144036238381800E-003  6.295793933469900E-003 
 6.451300043626600E-003  6.610647154704200E-003  6.773930139425400E-003  6.941246213869200E-003 
 7.112694995351700E-003  7.288378561736900E-003  7.468401512211800E-003  7.652871029563400E-003 
 7.841896943993700E-003  8.035591798510299E-003  8.234070915933501E-003  8.437452467557100E-003 
 8.645857543505700E-003  8.859410224830300E-003  9.078237657383600E-003  9.302470127520999E-003 
 9.532241139670800E-003  9.767687495820600E-003  1.000894937696700E-002  1.025617042657900E-002 
 1.050949783611500E-002  1.076908243266700E-002  1.103507876875400E-002  1.130764521434200E-002 
 1.158694405113600E-002  1.187314156919900E-002  1.216640816595900E-002  1.246691844765800E-002 
 1.277485133331500E-002  1.309039016124800E-002  1.341372279823100E-002  1.374504175134700E-002 
 1.408454428260500E-002  1.443243252638600E-002  1.478891360978700E-002  1.515419977594900E-002 
 1.552850851041500E-002  1.591206267062200E-002  1.630509061858700E-002  1.670782635686600E-002 
 1.712050966788000E-002  1.754338625667700E-002  1.797670789721700E-002  1.842073258227800E-002 
 1.887572467706000E-002  1.934195507658400E-002  1.981970136697500E-002  2.030924799074000E-002 
 2.081088641611100E-002  2.132491531058900E-002  2.185164071876000E-002  2.239137624451400E-002 
 2.294444323775300E-002  2.351117098572600E-002  2.409189690907300E-002  2.468696676272700E-002 
 2.529673484176700E-002  2.592156419235800E-002  2.656182682791000E-002  2.721790395055900E-002 
 2.789018617813800E-002  2.857907377673800E-002  2.928497689902300E-002  3.000831582842900E-002 
 3.074952122939100E-002  3.150903440375700E-002  3.228730755353000E-002  3.308480405010200E-002 
 3.390199871014000E-002  3.473937807828000E-002  3.559744071681400E-002  3.647669750251900E-002 
 3.737767193083100E-002  3.830090042752300E-002  3.924693266808300E-002  4.021633190498400E-002 
 4.120967530303700E-002  4.222755428302200E-002  4.327057487381300E-002  4.433935807319600E-002 
 4.543454021760400E-002  4.655677336097900E-002  4.770672566299500E-002  4.888508178687100E-002 
 5.009254330700700E-002  5.132982912669000E-002  5.259767590611900E-002  5.389683850100000E-002 
 5.522809041197500E-002  5.659222424515100E-002  5.799005218400600E-002  5.942240647295100E-002 
 6.089013991283300E-002  6.239412636868000E-002  6.393526128998600E-002  6.551446224384901E-002 
 6.713266946127200E-002  6.879084639696501E-002  7.048998030297000E-002  7.223108281645400E-002 
 7.401519056201999E-002  7.584336576890199E-002  7.771669690339400E-002  7.963629931690799E-002 
 8.160331591003500E-002  8.361891781301301E-002  8.568430508299500E-002  8.780070741854500E-002 
 8.996938489178299E-002  9.219162869861000E-002  9.446876192746501E-002  9.680214034707400E-002 
 9.919315321364600E-002  1.016432240980200E-001  1.041538117332400E-001  1.067264108830600E-001 
 1.093625532318700E-001  1.120638082966900E-001  1.148317843616200E-001  1.176681294353500E-001 
 1.205745322324100E-001  1.235527231785500E-001  1.266044754410600E-001  1.297316059844500E-001 
 1.329359766522700E-001  1.362194952755800E-001  1.395841168088900E-001  1.430318444940700E-001 
 1.465647310530700E-001  1.501848799100800E-001  1.538944464438600E-001  1.576956392710200E-001 
 1.615907215610200E-001  1.655820123835700E-001  1.696718880894500E-001  1.738627837252600E-001 
 1.781571944832700E-001  1.825576771870100E-001  1.870668518135300E-001  1.916874030533200E-001 
 1.964220819087400E-001  2.012737073318800E-001  2.062451679029800E-001  2.113394235501900E-001 
 2.165595073118700E-001  2.219085271424800E-001  2.273896677629000E-001  2.330061925566400E-001 
 2.387614455127900E-001  2.446588532169600E-001  2.507019268914100E-001  2.568942644856300E-001 
 2.632395528184300E-001  2.697415697730400E-001  2.764041865464400E-001  2.832313699541300E-001 
 2.902271847920000E-001  2.973957962563600E-001  3.047414724239000E-001  3.122685867927700E-001 
 3.199816208865500E-001  3.278851669224400E-001  3.359839305454300E-001  3.442827336299000E-001 
 3.527865171505600E-001  3.615003441241800E-001  3.704294026240500E-001  3.795790088688600E-001 
 3.889546103879200E-001  3.985617892645000E-001  4.084062654593400E-001  4.184939002161800E-001 
 4.288306995515200E-001  4.394228178304400E-001  4.502765614308600E-001  4.613983924982000E-001 
 4.727949327929000E-001  4.844729676328900E-001  4.964394499334200E-001  5.087015043467800E-001 
 5.212664315041400E-001  5.341417123622900E-001  5.473350126576400E-001  5.608541874702900E-001 
 5.747072859008000E-001  5.889025558625500E-001  6.034484489923601E-001  6.183536256824700E-001 
 6.336269602368200E-001  6.492775461546700E-001  6.653147015446900E-001  6.817479746728500E-001 
 6.985871496472700E-001  7.158422522435500E-001  7.335235558739700E-001  7.516415877040600E-001 
 7.702071349203500E-001  7.892312511528800E-001  8.087252630563601E-001  8.287007770538500E-001 
 8.491696862470800E-001  8.701441774973800E-001  8.916367386815700E-001  9.136601661270000E-001 
 9.362275722303400E-001  9.593523932644300E-001  9.830483973780600E-001  1.007329692793300E+000 
 1.032210736205300E+000  1.057706341389600E+000  1.083831688021900E+000  1.110602330716000E+000 
 1.138034208284700E+000  1.166143653229300E+000  1.194947401464100E+000  1.224462602280300E+000 
 1.254706828556600E+000  1.285698087221900E+000  1.317454829976300E+000  1.349995964276700E+000 
 1.383340864594400E+000  1.417509383949900E+000  1.452521865733400E+000  1.488399155817000E+000 
 1.525162614965700E+000  1.562834131555400E+000  1.601436134604800E+000  1.640991607129500E+000 
 1.681524099825600E+000  1.723057745091300E+000  1.765617271395100E+000  1.809228017998500E+000 
 1.853915950043100E+000  1.899707674009200E+000  1.946630453557200E+000  1.994712225760000E+000 
 2.043981617736300E+000  2.094467963694400E+000  2.146201322397700E+000  2.199212495060900E+000 
 2.253533043688900E+000  2.309195309868000E+000  2.366232434021700E+000  2.424678375142100E+000 
 2.484567931008100E+000  2.545936758904000E+000  2.608821396848900E+000  2.673259285351100E+000 
 2.739288789699200E+000  2.806949222804800E+000  2.876280868608100E+000  2.947325006062700E+000 
 3.020123933712500E+000  3.094720994875200E+000  3.171160603448600E+000  3.249488270353800E+000 
 3.329750630631500E+000  3.411995471208100E+000  3.496271759346900E+000  3.582629671802800E+000 
 3.671120624696300E+000  3.761797304126300E+000  3.854713697538200E+000  3.949925125867400E+000 
 4.047488276476400E+000  4.147461236905300E+000  4.249903529456900E+000  4.354876146634500E+000 
 4.462441587456400E+000  4.572663894666500E+000  4.685608692864800E+000  4.801343227578500E+000 
 4.919936405299700E+000  5.041458834510600E+000  5.165982867723100E+000  5.293582644555800E+000 
 5.424334135876300E+000  5.558315189032500E+000  5.695605574201600E+000  5.836287031884400E+000 
 5.980443321571900E+000  6.128160271614700E+000  6.279525830323600E+000  6.434630118332600E+000 
 6.593565482255400E+000  6.756426549667100E+000  6.923310285443900E+000  7.094316049494400E+000 
 7.269545655916900E+000  7.449103433618000E+000  7.633096288428400E+000  7.821633766752600E+000 
 8.014828120791400E+000  8.212794375374900E+000  8.415650396446701E+000  8.623516961238900E+000 
 8.836517830181499E+000  9.054779820586999E+000  9.278432882155499E+000  9.507610174344700E+000 
 9.742448145651000E+000  9.983086614848601E+000  1.022966885423500E+001  1.048234167493500E+001 
 1.074125551430600E+001  1.100656452550900E+001  1.127842666928900E+001  1.155700380802100E+001 
 1.184246180207900E+001  1.213497060859000E+001  1.243470438262200E+001  1.274184158087300E+001 
 1.305656506792100E+001  1.337906222509800E+001  1.370952506205800E+001  1.404815033109100E+001 
 1.439513964426900E+001  1.475069959348300E+001  1.511504187344200E+001  1.548838340771600E+001 
 1.587094647788600E+001  1.626295885589000E+001  1.666465393963000E+001  1.707627089193900E+001 
 1.749805478297000E+001  1.793025673611000E+001  1.837313407749100E+001  1.882695048920600E+001 
 1.929197616628900E+001  1.976848797759600E+001  2.025676963064300E+001  2.075711184052000E+001 
 2.126981250298100E+001  2.179517687180400E+001  2.233351774053800E+001  2.288515562872900E+001 
 2.345041897275900E+001  2.402964432138600E+001  2.462317653612400E+001  2.523136899656600E+001 
 2.585458381078100E+001  2.649319203090800E+001  2.714757387407100E+001  2.781811894876100E+001 
 2.850522648679500E+001  2.920930558101900E+001  2.993077542887000E+001  3.067006558196300E+001 
 3.142761620183800E+001  3.220387832202300E+001  3.299931411657700E+001  3.381439717525600E+001 
 3.464961278548500E+001  3.550545822128700E+001  3.638244303935300E+001  3.728108938242500E+001 
 3.820193229017000E+001  3.914552001773800E+001  4.011241436217600E+001  4.110319099692200E+001 
 4.211843981454500E+001  4.315876527796500E+001  4.422478678033000E+001  4.531713901380500E+001 
 4.643647234744600E+001  4.758345321442800E+001  4.875876450882400E+001  4.996310599219200E+001 
 5.119719471019900E+001  5.246176541954100E+001  5.375757102540400E+001  5.508538302973100E+001 
 5.644599199056500E+001  5.784020799273200E+001  5.926886113015300E+001  6.073280200006800E+001 
 6.223290220946900E+001  6.377005489404300E+001  6.534517524992600E+001  6.695920107859899E+001 
 6.861309334524100E+001  7.030783675086801E+001  7.204444031861399E+001  7.382393799448400E+001 
 7.564738926294800E+001  7.751587977774300E+001  7.943052200825301E+001
    </PP_R>
    <PP_RAB type="real" size="563" columns="4">
 2.147877361226695E-006  2.200929932048973E-006  2.255292901370590E-006  2.310998636034452E-006 
 2.368080302344487E-006  2.426571885812400E-006  2.486508211392088E-006  2.547924964213462E-006 
 2.610858710829535E-006  2.675346920987018E-006  2.741427989935215E-006  2.809141261286763E-006 
 2.878527050440545E-006  2.949626668586306E-006  3.022482447300461E-006  3.097137763748745E-006 
 3.173637066513250E-006  3.252025902056291E-006  3.332350941836984E-006  3.414660010100274E-006 
 3.499002112349891E-006  3.585427464525012E-006  3.673987522898653E-006  3.764735014714172E-006 
 3.857723969577674E-006  3.953009751626334E-006  4.050649092491424E-006  4.150700125076052E-006 
 4.253222418165426E-006  4.358277011894043E-006  4.465926454087850E-006  4.576234837503849E-006 
 4.689267837990050E-006  4.805092753588484E-006  4.923778544602018E-006  5.045395874653749E-006 
 5.170017152757781E-006  5.297716576430889E-006  5.428570175868769E-006  5.562655859212700E-006 
 5.700053458935194E-006  5.840844779370978E-006  5.985113645421361E-006  6.132945952463230E-006 
 6.284429717489018E-006  6.439655131511064E-006  6.598714613259430E-006  6.761702864207054E-006 
 6.928716924952775E-006  7.099856232999275E-006  7.275222681954293E-006  7.454920682198491E-006 
 7.639057223048820E-006  7.827741936458063E-006  8.021087162288693E-006  8.219208015197116E-006 
 8.422222453172690E-006  8.630251347765987E-006  8.843418556055759E-006  9.061850994390283E-006 
 9.285678713951852E-006  9.515034978186401E-006  9.750056342147561E-006  9.990882733798519E-006 
 1.023765753732350E-005  1.049052767849542E-005  1.074964371215430E-005  1.101515991184448E-005 
 1.128723436166697E-005  1.156602905040004E-005  1.185170996794496E-005  1.214444720415331E-005 
 1.244441505009576E-005  1.275179210183313E-005  1.306676136674839E-005  1.338951037250728E-005 
 1.372023127870804E-005  1.405912099129226E-005  1.440638127977703E-005  1.476221889738756E-005 
 1.512684570415314E-005  1.550047879304555E-005  1.588334061923397E-005  1.627565913252889E-005 
 1.667766791310250E-005  1.708960631055611E-005  1.751171958642673E-005  1.794425906021159E-005 
 1.838748225899873E-005  1.884165307079592E-005  1.930704190164467E-005  1.978392583661534E-005 
 2.027258880477965E-005  2.077332174825774E-005  2.128642279543977E-005  2.181219743848707E-005 
 2.235095871521768E-005  2.290302739548366E-005  2.346873217215192E-005  2.404840985680403E-005 
 2.464240558026666E-005  2.525107299810037E-005  2.587477450115255E-005  2.651388143133251E-005 
 2.716877430268413E-005  2.783984302796085E-005  2.852748715075151E-005  2.923211608337682E-005 
 2.995414935063442E-005  3.069401683959528E-005  3.145215905553398E-005  3.222902738420561E-005 
 3.302508436059588E-005  3.384080394430308E-005  3.467667180172527E-005  3.553318559522816E-005 
 3.641085527943055E-005  3.731020340483403E-005  3.823176542893132E-005  3.917609003502744E-005 
 4.014373945889308E-005  4.113528982352630E-005  4.215133148216847E-005  4.319246936977738E-005 
 4.425932336321104E-005  4.535252865028325E-005  4.647273610794485E-005  4.762061268980995E-005 
 4.879684182324950E-005  5.000212381628378E-005  5.123717627454479E-005  5.250273452852552E-005 
 5.379955207138228E-005  5.512840100754371E-005  5.649007251243146E-005  5.788537730348782E-005 
 5.931514612288354E-005  6.078023023211821E-005  6.228150191885226E-005  6.381985501624878E-005 
 6.539620543514967E-005  6.701149170939851E-005  6.866667555461994E-005  7.036274244081907E-005 
 7.210070217910606E-005  7.388158952293129E-005  7.570646478414841E-005  7.757641446431494E-005 
 7.949255190158454E-005  8.145601793355441E-005  8.346798157651171E-005  8.552964072145254E-005 
 8.764222284727108E-005  8.980698575159980E-005  9.202521829966367E-005  9.429824119166663E-005 
 9.662740774909975E-005  9.901410472050359E-005  1.014597531070994E-004  1.039658090088455E-004 
 1.065337644913627E-004  1.091651484743001E-004  1.118615276416141E-004  1.146245073743619E-004 
 1.174557327065107E-004  1.203568893043611E-004  1.233297044701785E-004  1.263759481705914E-004 
 1.294974340904039E-004  1.326960207124388E-004  1.359736124240361E-004  1.393321606509086E-004 
 1.427736650189863E-004  1.463001745449550E-004  1.499137888562144E-004  1.536166594409646E-004 
 1.574109909291562E-004  1.612990424051069E-004  1.652831287525132E-004  1.693656220327001E-004 
 1.735489528969061E-004  1.778356120334600E-004  1.822281516506865E-004  1.867291869964577E-004 
 1.913413979152722E-004  1.960675304437783E-004  2.009103984457396E-004  2.058728852873504E-004 
 2.109579455539465E-004  2.161686068091292E-004  2.215079713973144E-004  2.269792182908287E-004 
 2.325856049826129E-004  2.383304694256818E-004  2.442172320204872E-004  2.502493976514155E-004 
 2.564305577733933E-004  2.627643925503951E-004  2.692546730463929E-004  2.759052634706333E-004 
 2.827201234783519E-004  2.897033105282658E-004  2.968589822983331E-004  3.041913991610973E-004 
 3.117049267203727E-004  3.194040384103689E-004  3.272933181591092E-004  3.353774631176317E-004 
 3.436612864566306E-004  3.521497202321255E-004  3.608478183218410E-004  3.697607594343969E-004 
 3.788938501924280E-004  3.882525282921748E-004  3.978423657410070E-004  4.076690721748075E-004 
 4.177384982575109E-004  4.280566391644802E-004  4.386296381518448E-004  4.494637902141890E-004 
 4.605655458324730E-004  4.719415148145502E-004  4.835984702304544E-004  4.955433524451641E-004 
 5.077832732505529E-004  5.203255200998428E-004  5.331775604462957E-004  5.463470461893345E-004 
 5.598418182301989E-004  5.736699111404970E-004  5.878395579456567E-004  6.023591950269121E-004 
 6.172374671440925E-004  6.324832325825358E-004  6.481055684273429E-004  6.641137759674891E-004 
 6.805173862338907E-004  6.973261656738676E-004  7.145501219660016E-004  7.321995099785651E-004 
 7.502848378750310E-004  7.688168733705452E-004  7.878066501428026E-004  8.072654744013252E-004 
 8.272049316190496E-004  8.476368934300291E-004  8.685735246977625E-004  8.900272907577899E-004 
 9.120109648395018E-004  9.345376356710492E-004  9.576207152721284E-004  9.812739469393342E-004 
 1.005511413428733E-003  1.030347545340423E-003  1.055797129710340E-003  1.081875318814181E-003 
 1.108597639188892E-003  1.135980000876862E-003  1.164038706898517E-003  1.192790462958911E-003 
 1.222252387394003E-003  1.252442021362633E-003  1.283377339290284E-003  1.315076759570750E-003 
 1.347559155532155E-003  1.380843866673805E-003  1.414950710180642E-003  1.449899992722105E-003 
 1.485712522542344E-003  1.522409621849140E-003  1.560013139508805E-003  1.598545464054681E-003 
 1.638029537016829E-003  1.678488866581135E-003  1.719947541585688E-003  1.762430245862870E-003 
 1.805962272935673E-003  1.850569541077186E-003  1.896278608741796E-003  1.943116690377722E-003 
 1.991111672630037E-003  2.040292130944002E-003  2.090687346578333E-003  2.142327324038818E-003 
 2.195242808942576E-003  2.249465306323457E-003  2.305027099389630E-003  2.361961268744568E-003 
 2.420301712082542E-003  2.480083164370906E-003  2.541341218530840E-003  2.604112346628771E-003 
 2.668433921590463E-003  2.734344239453572E-003  2.801882542168118E-003  2.871089040959622E-003 
 2.942004940271492E-003  3.014672462296184E-003  3.089134872114895E-003  3.165436503456031E-003 
 3.243622785091495E-003  3.323740267883229E-003  3.405836652500022E-003  3.489960817816783E-003 
 3.576162850016771E-003  3.664494072412166E-003  3.755007076000771E-003  3.847755750777909E-003 
 3.942795317822265E-003  4.040182362172299E-003  4.139974866518096E-003  4.242232245721109E-003 
 4.347015382190324E-003  4.454386662130503E-003  4.564410012685148E-003  4.677150939998369E-003 
 4.792676568216401E-003  4.911055679451203E-003  5.032358754733710E-003  5.156658015975789E-003 
 5.284027468970155E-003  5.414542947453883E-003  5.548282158256013E-003  5.685324727564848E-003 
 5.825752248335724E-003  5.969648328869715E-003  6.117098642592580E-003  6.268190979064670E-003 
 6.423015296247687E-003  6.581663774064878E-003  6.744230869284425E-003  6.910813371755578E-003 
 7.081510462038013E-003  7.256423770450294E-003  7.435657437580609E-003  7.619318176288841E-003 
 7.807515335243142E-003  8.000360964023458E-003  8.197969879834977E-003  8.400459735866849E-003 
 8.607951091342795E-003  8.820567483298991E-003  9.038435500136544E-003  9.261684856989817E-003 
 9.490448472957446E-003  9.724862550239455E-003  9.965066655230536E-003  1.021120380161459E-002 
 1.046342053551448E-002  1.072186702274163E-002  1.098669713820354E-002  1.125806855751712E-002 
 1.153614285088765E-002  1.182108557930471E-002  1.211306639311348E-002  1.241225913302349E-002 
 1.271884193360904E-002  1.303299732936913E-002  1.335491236340458E-002  1.368477869878083E-002 
 1.402279273264056E-002  1.436915571313679E-002  1.472407385925139E-002  1.508775848357487E-002 
 1.546042611811900E-002  1.584229864323655E-002  1.623360341972448E-002  1.663457342419183E-002 
 1.704544738776938E-002  1.746646993824710E-002  1.789789174572191E-002  1.833996967184131E-002 
 1.879296692273578E-002  1.925715320572729E-002  1.973280488990885E-002  2.022020517068955E-002 
 2.071964423840558E-002  2.123141945109413E-002  2.175583551153627E-002  2.229320464867110E-002 
 2.284384680349335E-002  2.340808981953965E-002  2.398626963808224E-002  2.457873049814292E-002 
 2.518582514144718E-002  2.580791502244164E-002  2.644537052349539E-002  2.709857117542473E-002 
 2.776790588345807E-002  2.845377315877870E-002  2.915658135580142E-002  2.987674891529062E-002 
 3.061470461349773E-002  3.137088781744995E-002  3.214574874654143E-002  3.293974874058064E-002 
 3.375336053447459E-002  3.458706853967655E-002  3.544136913260504E-002  3.631677095018002E-002 
 3.721379519264995E-002  3.813297593390956E-002  3.907486043947668E-002  4.004000949233081E-002 
 4.102899772679142E-002  4.204241397064335E-002  4.308086159571933E-002  4.414495887713216E-002 
 4.523533936139823E-002  4.635265224362563E-002  4.749756275404252E-002  4.867075255406584E-002 
 4.987292014215194E-002  5.110478126966343E-002  5.236706936702529E-002  5.366053598039025E-002 
 5.498595121910579E-002  5.634410421421732E-002  5.773580358830752E-002  5.916187793694028E-002 
 6.062317632198246E-002  6.212056877713542E-002  6.365494682592995E-002  6.522722401253121E-002 
 6.683833644563898E-002  6.848924335584698E-002  7.018092766673693E-002  7.191439658010484E-002 
 7.369068217563469E-002  7.551084202537289E-002  7.737595982339918E-002  7.928714603103762E-002 
 8.124553853800330E-002  8.325230333989203E-002  8.530863523238638E-002  8.741575852262709E-002 
 8.957492775813528E-002  9.178742847376126E-002  9.405457795706267E-002  9.637772603260228E-002 
 9.875825586560941E-002  1.011975847854883E-001  1.036971651296908E-001  1.062584851083945E-001 
 1.088830696905726E-001  1.115724815119279E-001  1.143283218052735E-001  1.171522313538622E-001 
 1.200458914683029E-001  1.230110249875699E-001  1.260493973047651E-001  1.291628174181912E-001 
 1.323531390084199E-001  1.356222615419292E-001  1.389721314020148E-001  1.424047430476451E-001 
 1.459221402009208E-001  1.495264170638829E-001  1.532197195653612E-001  1.570042466386258E-001 
 1.608822515305995E-001  1.648560431434051E-001  1.689279874090478E-001  1.731005086980521E-001 
 1.773760912628937E-001  1.817572807170861E-001  1.862466855507990E-001  1.908469786839042E-001 
 1.955608990573968E-001  2.003912532641134E-001  2.053409172197380E-001  2.104128378750647E-001 
 2.156100349705787E-001  2.209356028343524E-001  2.263927122243610E-001  2.319846122163017E-001 
 2.377146321380440E-001  2.435861835518542E-001  2.496027622855762E-001  2.557679505140396E-001 
 2.620854188917389E-001  2.685589287383562E-001  2.751923342781918E-001  2.819895849348768E-001 
 2.889547276827654E-001  2.960919094565211E-001  3.034053796200930E-001  3.108994924967151E-001 
 3.185787099613945E-001  3.264476040974252E-001  3.345108599186336E-001  3.427732781586278E-001 
 3.512397781291472E-001  3.599154006489507E-001  3.688053110449790E-001  3.779148022277896E-001 
 3.872492978428017E-001  3.968143554995242E-001  4.066156700803507E-001  4.166590771313388E-001 
 4.269505563364854E-001  4.374962350780122E-001  4.483023920844167E-001  4.593754611689255E-001 
 4.707220350597886E-001  4.823488693257571E-001  4.942628863981125E-001  5.064711796921488E-001 
 5.189810178305487E-001  5.317998489709478E-001  5.449353052405410E-001  5.583952072799753E-001 
 5.721875688998003E-001  5.863206018516218E-001  6.008027207173512E-001  6.156425479190634E-001 
 6.308489188526598E-001  6.464308871483377E-001  6.623977300608913E-001  6.787589539934062E-001 
 6.955243001570336E-001  7.127037503709164E-001  7.303075330050739E-001  7.483461290702971E-001 
 7.668302784583458E-001  7.857709863362574E-001  8.051795296987636E-001  8.250674640823120E-001 
 8.454466304451494E-001  8.663291622171574E-001  8.877274925239264E-001  9.096543615892669E-001 
 9.321228243204999E-001  9.551462580812358E-001  9.787383706558390E-001  1.002913208411045E+000 
 1.027685164658773E+000  1.053068988225863E+000  1.079079792235024E+000  1.105733063103250E+000 
 1.133044669761901E+000  1.161030873105022E+000  1.189708335670707E+000  1.219094131561774E+000 
 1.249205756611347E+000  1.280061138799649E+000  1.311678648928008E+000  1.344077111556519E+000 
 1.377275816211956E+000  1.411294528872392E+000  1.446153503735553E+000  1.481873495277827E+000 
 1.518475770611172E+000  1.555982122145271E+000  1.594414880562263E+000  1.633796928112146E+000 
 1.674151712236531E+000  1.715503259528763E+000  1.757876190039112E+000  1.801295731933084E+000 
 1.845787736511837E+000  1.891378693603684E+000  1.938095747335689E+000
    </PP_RAB>
  </PP_MESH>
  <PP_LOCAL type="real" size="563" columns="4">
-2.562751520603400E+001 -2.562751610428800E+001 -2.562751698089000E+001 -2.562751783635800E+001 
-2.562751867120400E+001 -2.562751948592400E+001 -2.562752028100200E+001 -2.562752105691400E+001 
-2.562752181412000E+001 -2.562752255307000E+001 -2.562752327420600E+001 -2.562752397795600E+001 