<UPF version="2.0.1">
  <PP_INFO>
    Generated using FHI98PP, converted with fhi2upf.x v.5.0.1
    Author: Abinit web site
    Generation date: 10-Jul-2012, PG
    Pseudopotential type: SL
    Element: Md
    Functional: SLA-PW

    Suggested minimum cutoff for wavefunctions:   0. Ry
    Suggested minimum cutoff for charge density:   0. Ry
    The Pseudo was generated with a Non-Relativistic Calculation
    L component and cutoff radius for Local Potential:  0   0.0000

    Valence configuration: 
    nl pn  l   occ       Rcut    Rcut US       E pseu
    7s  7  0  2.00      0.000      0.000     0.000000
    7p  7  1  0.00      0.000      0.000     0.000000
    6d  6  2  0.00      0.000      0.000     0.000000
    5f  5  3 13.00      0.000      0.000     0.000000

    Generation configuration: not available.
    Comment:
    mendelevium, fhi98PP : Trouiller-Martins-type, LDA Ceperley/Alder Perdew/Wang (1
  </PP_INFO>
  <!--                               -->
  <!-- END OF HUMAN READABLE SECTION -->
  <!--                               -->
  <PP_HEADER generated="Generated using FHI98PP, converted with fhi2upf.x v.5.0.1"
             author="Abinit web site"
             date="10-Jul-2012, PG"
             comment="mendelevium, fhi98PP : Trouiller-Martins-type, LDA Ceperley/Alder Perdew/Wang (1"
             element="Md"
             pseudo_type="SL"
             relativistic="no"
             is_ultrasoft="F"
             is_paw="F"
             is_coulomb="F"
             has_so="F"
             has_wfc="F"
             has_gipaw="F"
             paw_as_gipaw="F"
             core_correction="T"
             functional="SLA-PW"
             z_valence="1.500000000000000E+001"
             total_psenergy="0.000000000000000E+000"
             wfc_cutoff="0.000000000000000E+000"
             rho_cutoff="0.000000000000000E+000"
             l_max="3"
             l_max_rho="0"
             l_local="0"
             mesh_size="577"
             number_of_wfc="4"
             number_of_proj="3"/>
  <PP_MESH dx="2.439988682353512E-002" mesh="577" xmin="-5.075173815233825E+000" rmax="7.857397032832100E+001"
zmesh="1.010000000000000E+002">
    <PP_R type="real" size="577" columns="4">
 6.188118811881200E-005  6.340965346534699E-005  6.497587190594100E-005  6.658077594201700E-005 
 6.822532110778501E-005  6.991048653914700E-005  7.163727555666400E-005  7.340671626291401E-005 
 7.521986215460800E-005  7.707779274982700E-005  7.898161423074700E-005  8.093246010224700E-005 
 8.293149186677200E-005  8.497989971588200E-005  8.707890323886400E-005  8.922975214886399E-005 
 9.143372702694100E-005  9.369214008450600E-005  9.600633594459400E-005  9.837769244242500E-005 
 1.008076214457500E-004  1.032975696954600E-004  1.058490196669400E-004  1.084634904527100E-004 
 1.111425386669000E-004  1.138877593719700E-004  1.167007870284600E-004  1.195832964680600E-004 
 1.225370038908200E-004  1.255636678869200E-004  1.286650904837300E-004  1.318431182186800E-004 
 1.350996432386800E-004  1.384366044266800E-004  1.418559885560100E-004  1.453598314733500E-004 
 1.489502193107400E-004  1.526292897277100E-004  1.563992331839900E-004  1.602622942436300E-004 
 1.642207729114500E-004  1.682770260023600E-004  1.724334685446200E-004  1.766925752176800E-004 
 1.810568818255500E-004  1.855289868066400E-004  1.901115527807700E-004  1.948073081344500E-004 
 1.996190486453700E-004  2.045496391469100E-004  2.096020152338400E-004  2.147791850101200E-004 
 2.200842308798700E-004  2.255203113826000E-004  2.310906630737500E-004  2.367986024516700E-004 
 2.426475279322300E-004  2.486409218721500E-004  2.547823526424000E-004  2.610754767526600E-004 
 2.675240410284500E-004  2.741318848418600E-004  2.809029423974500E-004  2.878412450746700E-004 
 2.949509238280100E-004  3.022362116465700E-004  3.097014460742400E-004  3.173510717922700E-004 
 3.251896432655400E-004  3.332218274542000E-004  3.414524065923200E-004  3.498862810351500E-004 
 3.585284721767100E-004  3.673841254394800E-004  3.764585133378300E-004  3.857570386172800E-004 
 3.952852374711200E-004  4.050487828366600E-004  4.150534877727300E-004  4.253053089207100E-004 
 4.358103500510500E-004  4.465748656973200E-004  4.576052648800400E-004  4.689081149225800E-004 
 4.804901453611600E-004  4.923582519515800E-004  5.045195007747899E-004  5.169811324439300E-004 
 5.297505664152901E-004  5.428354054057500E-004  5.562434399192700E-004  5.699826528852800E-004 
 5.840612244115400E-004  5.984875366545100E-004  6.132701788098700E-004  6.284179522264800E-004 
 6.439398756464700E-004  6.598451905749400E-004  6.761433667821400E-004  6.928441079416600E-004 
 7.099573574078200E-004  7.274933041357900E-004  7.454623887479500E-004  7.638753097500200E-004 
 7.827430299008500E-004  8.020767827394000E-004  8.218880792730600E-004  8.421887148311000E-004 
 8.629907760874300E-004  8.843066482567900E-004  9.061490224687300E-004  9.285309033237100E-004 
 9.514656166358100E-004  9.749668173667100E-004  9.990484977556700E-004  1.023724995650200E-003 
 1.049011003042800E-003  1.074921574818000E-003  1.101472137716000E-003  1.128678499517500E-003 
 1.156556858455600E-003  1.185123812859500E-003  1.214396371037100E-003  1.244391961401700E-003 
 1.275128442848300E-003  1.306624115386700E-003  1.338897731036700E-003  1.371968504993400E-003 
 1.405856127066700E-003  1.440580773405200E-003  1.476163118508400E-003  1.512624347535500E-003 
 1.549986168919600E-003  1.588270827291900E-003  1.627501116726100E-003  1.667700394309200E-003 
 1.708892594048600E-003  1.751102241121600E-003  1.794354466477300E-003  1.838675021799300E-003 
 1.884090294837800E-003  1.930627325120300E-003  1.978313820050700E-003  2.027178171406000E-003 
 2.077249472239700E-003  2.128557534204000E-003  2.181132905298900E-003  2.235006888059800E-003 
 2.290211558194800E-003  2.346779783682200E-003  2.404745244339200E-003  2.464142451874400E-003 
 2.525006770435700E-003  2.587374437665400E-003  2.651282586275800E-003  2.716769266156800E-003 
 2.783873467030800E-003  2.852635141666500E-003  2.923095229665700E-003  2.995295681838400E-003 
 3.069279485179800E-003  3.145090688463800E-003  3.222774428468800E-003  3.302376956852000E-003 
 3.383945667686200E-003  3.467529125678100E-003  3.553177095082300E-003  3.640940569330900E-003 
 3.730871801393300E-003  3.823024334887800E-003  3.917453035959500E-003  4.014214125947700E-003 
 4.113365214858600E-003  4.214965335665600E-003  4.319074979456500E-003  4.425756131449100E-003 
 4.535072307895900E-003  4.647088593900900E-003  4.761871682170300E-003  4.879489912719900E-003 
 5.000013313564100E-003  5.123513642409100E-003  5.250064429376600E-003  5.379741020782200E-003 
 5.512620623995500E-003  5.648782353408200E-003  5.788307277537400E-003  5.931278467292600E-003 
 6.077781045434700E-003  6.227902237257000E-003  6.381731422517200E-003  6.539360188653400E-003 
 6.700882385313100E-003  6.866394180230300E-003  7.035994116482000E-003  7.209783171159100E-003 
 7.387864815486800E-003  7.570345076429300E-003  7.757332599817100E-003  7.948938715032600E-003 
 8.145277501293900E-003  8.346465855575800E-003  8.552623562208600E-003  8.763873364195100E-003 
 8.980341036290701E-003  9.202155459887101E-003  9.429448699746301E-003  9.662356082630099E-003 
 9.901016277871001E-003  1.014557137993400E-002  1.039616699301900E-002  1.065295231774600E-002 
 1.091608023999500E-002  1.118570742192300E-002  1.146199439524400E-002  1.174510565680700E-002 
 1.203520976653000E-002  1.233247944776300E-002  1.263709169012300E-002  1.294922785486900E-002 
 1.326907378288400E-002  1.359681990532100E-002  1.393266135698300E-002  1.427679809250000E-002 
 1.462943500538500E-002  1.499078205001800E-002  1.536105436665300E-002  1.574047240951000E-002 
 1.612926207802500E-002  1.652765485135200E-002  1.693588792618000E-002  1.735420435795700E-002 
 1.778285320559800E-002  1.822208967977700E-002  1.867217529486700E-002  1.913337802465000E-002 
 1.960597246185900E-002  2.009023998166700E-002  2.058646890921400E-002  2.109495469127200E-002 
 2.161600007214600E-002  2.214991527392800E-002  2.269701818119400E-002  2.325763453027000E-002 
 2.383209810316800E-002  2.442075092631600E-002  2.502394347419600E-002  2.564203487800800E-002 
 2.627539313949500E-002  2.692439535004100E-002  2.758942791518700E-002  2.827088678469200E-002 
 2.896917768827400E-002  2.968471637717400E-002  3.041792887169000E-002  3.116925171482100E-002 
 3.193913223217700E-002  3.272802879831200E-002  3.353641110963000E-002  3.436476046403800E-002 
 3.521357004750000E-002  3.608334522767300E-002  3.697460385479700E-002  3.788787657001000E-002 
 3.882370712128900E-002  3.978265268718500E-002  4.076528420855900E-002  4.177218672851000E-002 
 4.280395974070400E-002  4.386121754630000E-002  4.494458961969300E-002  4.605472098330000E-002 
 4.719227259158700E-002  4.835792172459900E-002  4.955236239119700E-002  5.077630574226000E-002 
 5.203048049409300E-002  5.331563336229700E-002  5.463252950634600E-002  5.598195298515300E-002 
 5.736470722388600E-002  5.878161549231600E-002  6.023352139497600E-002  6.172128937343200E-002 
 6.324580522095601E-002  6.480797660991400E-002  6.640873363217900E-002  6.804902935289300E-002 
 6.972984037791000E-002  7.145216743524400E-002  7.321703597089500E-002  7.502549675937600E-002 
 7.687862652933200E-002  7.877752860460700E-002  8.072333356114100E-002  8.271719990010100E-002 
 8.476031473763300E-002  8.685389451165300E-002  8.899918570609100E-002  9.119746559303100E-002 
 9.345004299317899E-002  9.575825905511100E-002  9.812348805377200E-002  1.005471382087000E-001 
 1.030306525224500E-001  1.055755096397600E-001  1.081832247278600E-001  1.108553503786400E-001 
 1.135934775329900E-001  1.163992364280600E-001  1.192742975678300E-001  1.222203727177600E-001 
 1.252392159238800E-001  1.283326245572000E-001  1.315024403837700E-001  1.347505506612500E-001 
 1.380788892625800E-001  1.414894378273600E-001  1.449842269417000E-001  1.485653373471600E-001 
 1.522349011796400E-001  1.559951032387700E-001  1.598481822887700E-001  1.637964323913000E-001 
 1.678422042713700E-001  1.719879067168700E-001  1.762360080127800E-001  1.805890374106900E-001 
 1.850495866347400E-001  1.896203114246100E-001  1.943039331168000E-001  1.991032402647900E-001 
 2.040210902993300E-001  2.090604112297200E-001  2.142242033871000E-001  2.195155412107600E-001 
 2.249375750786600E-001  2.304935331831100E-001  2.361867234527300E-001  2.420205355220100E-001 
 2.479984427494000E-001  2.541240042853100E-001  2.604008671911600E-001  2.668327686107800E-001 
 2.734235379954700E-001  2.801770993839600E-001  2.870974737387400E-001  2.941887813400900E-001 
 3.014552442391900E-001  3.089011887719000E-001  3.165310481345600E-001  3.243493650234900E-001 
 3.323607943395700E-001  3.405701059597500E-001  3.489821875769600E-001  3.576020476101100E-001 
 3.664348181860800E-001  3.754857581952800E-001  3.847602564227000E-001  3.942638347563400E-001 
 4.040021514748200E-001  4.139810046162500E-001  4.242063354302700E-001  4.346842319154000E-001 
 4.454209324437100E-001  4.564228294750700E-001  4.676964733631000E-001  4.792485762551700E-001 
 4.910860160886700E-001  5.032158406860600E-001  5.156452719510100E-001  5.283817101682000E-001 
 5.414327384093500E-001  5.548061270480600E-001  5.685098383861500E-001  5.825520313942900E-001 
 5.969410665697300E-001  6.116855109140000E-001  6.267941430335801E-001  6.422759583665100E-001 
 6.581401745381600E-001  6.743962368492500E-001  6.910538238994300E-001  7.081228533497400E-001 
 7.256134878274800E-001  7.435361409768200E-001  7.619014836589501E-001  7.807204503053200E-001 
 8.000042454278700E-001  8.197643502899300E-001  8.400125297420900E-001  8.607608392267200E-001 
 8.820216319556200E-001  9.038075662649300E-001  9.261316131516700E-001  9.490070639965200E-001 
 9.724475384772300E-001  9.964669926776200E-001  1.021079727396800E+000  1.046300396663500E+000 
 1.072144016461000E+000  1.098625973667600E+000  1.125762035217200E+000  1.153568357487100E+000 
 1.182061495917000E+000  1.211258414866200E+000  1.241176497713400E+000  1.271833557206900E+000 
 1.303247846069900E+000  1.335438067867800E+000  1.368423388144200E+000  1.402223445831300E+000 
 1.436858364943300E+000  1.472348766557400E+000  1.508715781091400E+000  1.545981060884400E+000 
 1.584166793088200E+000  1.623295712877500E+000  1.663391116985600E+000  1.704476877575100E+000 
 1.746577456451200E+000  1.789717919625600E+000  1.833923952240300E+000  1.879221873860700E+000 
 1.925638654145000E+000  1.973201928902400E+000  2.021940016546300E+000  2.071881934955000E+000 
 2.123057418748400E+000  2.175496936991400E+000  2.229231711335100E+000  2.284293734605100E+000 
 2.340715789849900E+000  2.398531469859200E+000  2.457775197164700E+000  2.518482244534600E+000 
 2.580688755974600E+000  2.644431768247200E+000  2.709749232922900E+000  2.776680038976100E+000 
 2.845264035938800E+000  2.915542057626500E+000  2.987555946449900E+000  3.061348578327200E+000 
 3.136963888211900E+000  3.214446896250700E+000  3.293843734588100E+000  3.375201674832400E+000 
 3.458569156200800E+000  3.543995814359000E+000  3.631532510973600E+000  3.721231363994700E+000 
 3.813145778685300E+000  3.907330479418900E+000  4.003841542260500E+000  4.102736428354400E+000 
 4.204074018134700E+000  4.307914646382600E+000  4.414320138148300E+000  4.523353845560500E+000 
 4.635080685545900E+000  4.749567178478900E+000  4.866881487787300E+000  4.987093460535700E+000 
 5.110274669010900E+000  5.236498453335500E+000  5.365839965132800E+000  5.498376212271600E+000 
 5.634186104714700E+000  5.773350501501200E+000  5.915952258888300E+000  6.062076279682800E+000 
 6.211809563791000E+000  6.365241260016600E+000  6.522462719139000E+000  6.683567548301700E+000 
 6.848651666744800E+000  7.017813362913400E+000  7.191153352977400E+000  7.368774840795900E+000 
 7.550783579363500E+000  7.737287933773800E+000  7.928398945738000E+000  8.124230399697799E+000 
 8.324898890570299E+000  8.530523893167400E+000  8.741227833328599E+000  8.957136160811800E+000 
 9.178377423983900E+000  9.405083346356300E+000  9.637388905011299E+000  9.875432410965100E+000 
 1.011935559151600E+001  1.036930367462600E+001  1.062542547539000E+001  1.088787348463200E+001 
 1.115680395970200E+001  1.143237701750700E+001  1.171475672983900E+001  1.200411122106600E+001 
 1.230061276822700E+001  1.260443790360200E+001  1.291576751982100E+001  1.323478697756000E+001 
 1.356168621590600E+001  1.389665986543900E+001  1.423990736411500E+001  1.459163307600900E+001 
 1.495204641298600E+001  1.532136195938700E+001  1.569979959978400E+001  1.608758464989900E+001 
 1.648494799075100E+001  1.689212620612300E+001  1.730936172341400E+001  1.773690295798200E+001 
 1.817500446104400E+001  1.862392707123200E+001  1.908393806989200E+001  1.955531134021800E+001 
 2.003832753032100E+001  2.053327422032000E+001  2.104044609356200E+001  2.156014511207300E+001 
 2.209268069634100E+001  2.263836990954100E+001  2.319753764630700E+001  2.377051682617000E+001 
 2.435764859177700E+001  2.495928251199400E+001  2.557577679004000E+001  2.620749847675400E+001 
 2.685482368913000E+001  2.751813783425100E+001  2.819783583875700E+001  2.889432238397500E+001 
 2.960801214685900E+001  3.033933004688600E+001  3.108871149904400E+001  3.185660267307100E+001 
 3.264346075909500E+001  3.344975423984500E+001  3.427596316956900E+001  3.512257945985800E+001 
 3.599010717251600E+001  3.687906281967700E+001  3.778997567132300E+001  3.872338807040500E+001 
 3.967985575574400E+001  4.065994819291100E+001  4.166424891327600E+001  4.269335586143400E+001 
 4.374788175121100E+001  4.482845443046600E+001  4.593571725489800E+001  4.707032947109400E+001 
 4.823296660903100E+001  4.942432088427400E+001  5.064510161011500E+001  5.189603561988500E+001 
 5.317786769969600E+001  5.449136103187900E+001  5.583729764936600E+001  5.721647890130500E+001 
 5.862972593016800E+001  6.007788016064300E+001  6.156180380061100E+001  6.308238035448600E+001 
 6.464051514924100E+001  6.623713587342800E+001  6.787319312950100E+001  6.954966099980000E+001 
 7.126753762649500E+001  7.302784580587000E+001  7.483163359727500E+001  7.667997494712699E+001 
 7.857397032832100E+001
    </PP_R>
    <PP_RAB type="real" size="577" columns="4">
 1.509893986604899E-006  1.547188368074048E-006  1.585403920765475E-006  1.624563397608365E-006 
 1.664690113529296E-006  1.705807959333462E-006  1.747941415929001E-006  1.791115568902457E-006 
 1.835356123454348E-006  1.880689419703675E-006  1.927142448370338E-006  1.974742866845099E-006 
 2.023519015656160E-006  2.073499935342885E-006  2.124715383745847E-006  2.177195853724371E-006 
 2.230972591311365E-006  2.286077614316745E-006  2.342543731390386E-006  2.400404561555716E-006 
 2.459694554226072E-006  2.520449009715456E-006  2.582704100255479E-006  2.646496891531706E-006 
 2.711865364752736E-006  2.778848439262069E-006  2.847485995711899E-006  2.917818899805911E-006 
 2.989889026631091E-006  3.063739285588799E-006  3.139413645942918E-006  3.216957162997753E-006 
 3.296416004923764E-006  3.377837480245494E-006  3.461270066007337E-006  3.546763436637879E-006 
 3.634368493522792E-006  3.724137395312676E-006  3.816123588977035E-006  3.910381841624656E-006 
 4.006968273112842E-006  4.105940389458661E-006  4.207357117078332E-006  4.311278837870358E-006 
 4.417767425165593E-006  4.526886280567156E-006  4.638700371697311E-006  4.753276270878113E-006 
 4.870682194768779E-006  4.990988044979553E-006  5.114265449690580E-006  5.240587806298039E-006 
 5.370030325113602E-006  5.502670074143839E-006  5.638586024975187E-006  5.777859099792034E-006 
 5.920572219556989E-006  6.066810353379898E-006  6.216660569108574E-006  6.370212085165379E-006 
 6.527556323668946E-006  6.688786964863747E-006  6.854000002895785E-006  7.023293802967383E-006 
 7.196769159900573E-006  7.374529358150316E-006  7.556680233296621E-006  7.743330235058957E-006 
 7.934590491864936E-006  8.130574877014029E-006  8.331400076476306E-006  8.537185658365263E-006 
 8.748054144126684E-006  8.964131081486742E-006  9.185545119199338E-006  9.412428083643699E-006 
 9.644915057309533E-006  9.883144459225159E-006  1.012725812736813E-005  1.037740140311396E-005 
 1.063372321777084E-005  1.089637618125000E-005  1.116551667292679E-005  1.144130493474815E-005 
 1.172390516663624E-005  1.201348562425214E-005  1.231021871917132E-005  1.261428112153491E-005 
 1.292585386523670E-005  1.324512245570810E-005  1.357227698036404E-005  1.390751222177914E-005 
 1.425102777365692E-005  1.460302815966637E-005  1.496372295520997E-005  1.533332691220381E-005 
 1.571206008693515E-005  1.610014797108250E-005  1.649782162596821E-005  1.690531782012965E-005 
 1.732287917028688E-005  1.775075428579289E-005  1.818919791665212E-005  1.863847110519332E-005 
 1.909884134149171E-005  1.957058272262653E-005  2.005397611587533E-005  2.054930932593733E-005 
 2.105687726628803E-005  2.157698213476536E-005  2.210993359349399E-005  2.265604895325335E-005 
 2.321565336239882E-005  2.378908000044996E-005  2.437667027646113E-005  2.497877403228887E-005 
 2.559574975088738E-005  2.622796476973534E-005  2.687579549954769E-005  2.753962764838444E-005 
 2.821985645129997E-005  2.891688690564822E-005  2.963113401221701E-005  3.036302302231837E-005 
 3.111298969096909E-005  3.188148053633717E-005  3.266895310558345E-005  3.347587624729364E-005 
 3.430273039060089E-005  3.515000783124757E-005  3.601821302468163E-005  3.690786288638985E-005 
 3.781948709968303E-005  3.875362843104486E-005  3.971084305329387E-005  4.069170087670937E-005 
 4.169678588836319E-005  4.272669649980574E-005  4.378204590335087E-005  4.486346243716389E-005 
 4.597158995936323E-005  4.710708823135966E-005  4.827063331067250E-005  4.946291795344729E-005 
 5.068465202689673E-005  5.193656293196059E-005  5.321939603638151E-005  5.453391511848055E-005 
 5.588090282190514E-005  5.726116112160592E-005  5.867551180131079E-005  6.012479694280370E-005 
 6.160987942729100E-005  6.313164344914358E-005  6.469099504233902E-005  6.628886261988449E-005 
 6.792619752659385E-005  6.960397460550168E-005  7.132319277825849E-005  7.308487563988042E-005 
 7.489007206818526E-005  7.673985684827088E-005  7.863533131242180E-005  8.057762399583913E-005 
 8.256789130853526E-005  8.460731822385732E-005  8.669711898398541E-005  8.883853782289149E-005 
 9.103284970711513E-005  9.328136109488296E-005  9.558541071392586E-005  9.794637035855983E-005 
 1.003656457064161E-004  1.028446771553644E-004  1.053849406811009E-004  1.079879487159247E-004 
 1.106552510492082E-004  1.133884357501229E-004  1.161891301131521E-004  1.190590016269468E-004 
 1.219997589671329E-004  1.250131530136202E-004  1.281009778930565E-004  1.312650720470150E-004 
 1.345073193265758E-004  1.378296501139425E-004  1.412340424717572E-004  1.447225233208103E-004 
 1.482971696468336E-004  1.519601097371120E-004  1.557135244476175E-004  1.595596485014742E-004 
 1.635007718194597E-004  1.675392408833995E-004  1.716774601332198E-004  1.759178933985102E-004 
 1.802630653654551E-004  1.847155630799813E-004  1.892780374880567E-004  1.939532050140121E-004 
 1.987438491778581E-004  2.036528222525498E-004  2.086830469621896E-004  2.138375182221544E-004 
 2.191193049222412E-004  2.245315517538211E-004  2.300774810821401E-004  2.357603948648706E-004 
 2.415836766180314E-004  2.475507934304866E-004  2.536652980282350E-004  2.599308308895186E-004 
 2.663511224125061E-004  2.729299951360980E-004  2.796713660159475E-004  2.865792487565529E-004 
 2.936577562008366E-004  3.009111027789901E-004  3.083436070176374E-004  3.159596941109720E-004 
 3.237638985555066E-004  3.317608668498219E-004  3.399553602610264E-004  3.483522576594621E-004 
 3.569565584236569E-004  3.657733854167210E-004  3.748079880365032E-004  3.840657453410212E-004 
 3.935521692509469E-004  4.032729078314399E-004  4.132337486548669E-004  4.234406222466508E-004 
 4.338996056161300E-004  4.446169258748661E-004  4.555989639439634E-004  4.668522583533740E-004 
 4.783835091347059E-004  4.901995818103351E-004  5.023075114810461E-004  5.147145070146381E-004 
 5.274279553378894E-004  5.404554258347351E-004  5.538046748528526E-004  5.674836503217304E-004 
 5.815004964846853E-004  5.958635587478509E-004  6.105813886489226E-004  6.256627489485354E-004 
 6.411166188475692E-004  6.569521993331157E-004  6.731789186566433E-004  6.898064379474595E-004 
 7.068446569647644E-004  7.243037199917851E-004  7.421940218755774E-004  7.605262142159104E-004 
 7.793112117070415E-004  7.985601986362109E-004  8.182846355425179E-004  8.384962660404213E-004 
 8.592071238116262E-004  8.804295397697674E-004  9.021761494020922E-004  9.244599002923120E-004 
 9.472940598295261E-004  9.706922231073193E-004  9.946683210180832E-004  1.019236628547220E-003 
 1.044411773272331E-003  1.070208744072173E-003  1.096642900050741E-003  1.123729979682008E-003 
 1.151486110180141E-003  1.179927817101586E-003  1.209072034184005E-003  1.238936113428360E-003 
 1.269537835430021E-003  1.300895419965140E-003  1.333027536838285E-003  1.365953316998197E-003 
 1.399692363928046E-003  1.434264765317069E-003  1.469691105020396E-003  1.505992475314402E-003 
 1.543190489454673E-003  1.581307294544213E-003  1.620365584719458E-003  1.660388614662009E-003 
 1.701400213444173E-003  1.743424798716235E-003  1.786487391244538E-003  1.830613629808275E-003 
 1.875829786464526E-003  1.922162782190212E-003  1.969640202910315E-003  2.018290315922195E-003 
 2.068142086725461E-003  2.119225196267591E-003  2.171570058615405E-003  2.225207839063195E-003 
 2.280170472688059E-003  2.336490683363466E-003  2.394202003242537E-003  2.453338792722624E-003 
 2.513936260902753E-003  2.576030486547185E-003  2.639658439564850E-003  2.704858003022147E-003 
 2.771667995696735E-003  2.840128195190570E-003  2.910279361611702E-003  2.982163261843624E-003 
 3.055822694410949E-003  3.131301514962904E-003  3.208644662382662E-003  3.287898185543535E-003 
 3.369109270726391E-003  3.452326269713193E-003  3.537598728575211E-003  3.624977417171019E-003 
 3.714514359375269E-003  3.806262864051665E-003  3.900277556793800E-003  3.996614412446542E-003 
 4.095330788434091E-003  4.196485458908344E-003  4.300138649743461E-003  4.406352074391986E-003 
 4.515188970629613E-003  4.626714138203968E-003  4.740993977417658E-003  4.858096528659997E-003 
 4.978091512917891E-003  5.101050373286879E-003  5.227046317507209E-003  5.356154361549604E-003 
 5.488451374279738E-003  5.624016123224621E-003  5.762929321468200E-003  5.905273675708406E-003 
 6.051133935498314E-003  6.200596943705118E-003  6.353751688214704E-003  6.510689354913566E-003 
 6.671503381980023E-003  6.836289515514976E-003  7.005145866548102E-003  7.178172969451917E-003 
 7.355473841797374E-003  7.537154045689817E-003  7.723321750618212E-003  7.914087797858637E-003 
 8.109565766465741E-003  8.309872040897264E-003  8.515125880307528E-003  8.725449489551102E-003 
 8.940968091943021E-003  9.161810003814108E-003  9.388106710908232E-003  9.619992946667650E-003 
 9.857606772450301E-003  1.010108965972987E-002  1.035058657432516E-002  1.060624606271105E-002 
 1.086822034046001E-002  1.113666538286938E-002  1.141174101782615E-002  1.169361102096649E-002 
 1.198244321318430E-002  1.227840956054994E-002  1.258168627669563E-002  1.289245392773002E-002 
 1.321089753974484E-002  1.353720670897651E-002  1.387157571468830E-002  1.421420363484116E-002 
 1.456529446462176E-002  1.492505723789786E-002  1.529370615167404E-002  1.567146069362040E-002 
 1.605854577275275E-002  1.645519185333968E-002  1.686163509211726E-002  1.727811747889241E-002 
 1.770488698062109E-002  1.814219768904246E-002  1.859030997196187E-002  1.904949062826919E-002 
 1.952001304678764E-002  2.000215736904309E-002  2.049621065605842E-002  2.100246705926308E-002 
 2.152122799562688E-002  2.205280232711901E-002  2.259750654459876E-002  2.315566495625044E-002 
 2.372760988066972E-002  2.431368184472233E-002  2.491422978628801E-002  2.552961126200931E-002 
 2.616019266017878E-002  2.680634941888552E-002  2.746846624953224E-002  2.814693736589655E-002 
 2.884216671883342E-002  2.955456823678983E-002  3.028456607223866E-002  3.103259485422244E-002 
 3.179909994712148E-002  3.258453771581473E-002  3.338937579739695E-002  3.421409337959115E-002 
 3.505918148606624E-002  3.592514326877209E-002  3.681249430751155E-002  3.772176291690812E-002 
 3.865349046095466E-002  3.960823167534076E-002  4.058655499772230E-002  4.158904290616497E-002 
 4.261629226594712E-002  4.366891468491736E-002  4.474753687763355E-002  4.585280103851268E-002 
 4.698536522416249E-002  4.814590374519976E-002  4.933510756770645E-002  5.055368472462896E-002 
 5.180236073732757E-002  5.308187904753747E-002  5.439300146001196E-002  5.573650859607482E-002 
 5.711320035839918E-002  5.852389640725183E-002  5.996943664851040E-002  6.145068173372694E-002 
 6.296851357254989E-002  6.452383585779253E-002  6.611757460347988E-002  6.775067869618592E-002 
 6.942412045998149E-002  7.113889623534331E-002  7.289602697235692E-002  7.469655883857383E-002 
 7.654156384188704E-002  7.843214046878082E-002  8.036941433835990E-002  8.235453887251674E-002 
 8.438869598266889E-002  8.647309677344178E-002  8.860898226374415E-002  9.079762412565991E-002 
 9.304032544156202E-002  9.533842147997039E-002  9.769328049052452E-002  1.001063045186421E-001 
 1.025789302402512E-001  1.051126298171848E-001  1.077089117736704E-001  1.103693218944786E-001 
 1.130954441452735E-001  1.158889016156622E-001  1.187513574855683E-001  1.216845160154632E-001 
 1.246901235610444E-001  1.277699696130029E-001  1.309258878624419E-001  1.341597572926448E-001 
 1.374735032977729E-001  1.408690988292290E-001  1.443485655703115E-001  1.479139751398972E-001 
 1.515674503258535E-001  1.553111663489011E-001  1.591473521577187E-001  1.630782917560136E-001 
 1.671063255623883E-001  1.712338518037794E-001  1.754633279433337E-001  1.797972721435330E-001 
 1.842382647654768E-001  1.887889499051846E-001  1.934520369678424E-001  1.982303022809498E-001 
 2.031265907472884E-001  2.081438175387468E-001  2.132849698319529E-001  2.185531085868018E-001 
 2.239513703688970E-001  2.294829692170087E-001  2.351511985566688E-001  2.409594331610190E-001 
 2.469111311600977E-001  2.530098360997413E-001  2.592591790514228E-001  2.656628807739898E-001 
 2.722247539290973E-001  2.789487053511548E-001  2.858387383733180E-001  2.928989552111383E-001 
 3.001335594048699E-001  3.075468583221651E-001  3.151432657227233E-001  3.229273043860605E-001 
 3.309036088044027E-001  3.390769279418744E-001  3.474521280620304E-001  3.560341956251712E-001 
 3.648282402571027E-001  3.738394977914591E-001  3.830733333869116E-001  3.925352447215765E-001 
 4.022308652661871E-001  4.121659676382729E-001  4.223464670389324E-001  4.327784247747861E-001 
 4.434680518667196E-001  4.544217127478327E-001  4.656459290527181E-001  4.771473835003121E-001 
 4.889329238727604E-001  5.010095670924193E-001  5.133845033996045E-001  5.260651006335751E-001 
 5.390589086192195E-001  5.523736636621235E-001  5.660172931545862E-001  5.799979202954852E-001 
 5.943238689267984E-001  6.090036684892930E-001  6.240460591009723E-001  6.394599967607667E-001 
 6.552546586807619E-001  6.714394487501643E-001  6.880240031342933E-001  7.050181960117274E-001 
 7.224321454532128E-001  7.402762194458969E-001  7.585610420662084E-001  7.772974998052588E-001 
 7.964967480504278E-001  8.161702177272820E-001  8.363296221051418E-001  8.569869637711546E-001 
 8.781545417762899E-001  8.998449589581609E-001  9.220711294444268E-001  9.448462863417121E-001 
 9.681839896143523E-001  9.920981341578299E-001  1.016602958071531E+000  1.041713051135899E+000 
 1.067443363498946E+000  1.093809214577372E+000  1.120826302177421E+000  1.148510711841203E+000 
 1.176878926423705E+000  1.205947835906369E+000  1.235734747453242E+000  1.266257395715341E+000 
 1.297533953389507E+000  1.329583042038240E+000  1.362423743176574E+000  1.396075609633027E+000 