<UPF version="2.0.1">
  <PP_INFO>
    Generated using FHI98PP, converted with fhi2upf.x v.5.0.1
    Author: Abinit web site
    Generation date: 10-Jul-2012, PG
    Pseudopotential type: SL
    Element: Mg
    Functional: SLA-PW

    Suggested minimum cutoff for wavefunctions:   0. Ry
    Suggested minimum cutoff for charge density:   0. Ry
    The Pseudo was generated with a Scalar-Relativistic Calculation
    L component and cutoff radius for Local Potential:  2   0.0000

    Valence configuration: 
    nl pn  l   occ       Rcut    Rcut US       E pseu
    3s  3  0  2.00      0.000      0.000     0.000000
    3p  3  1  0.00      0.000      0.000     0.000000
    3d  3  2  0.00      0.000      0.000     0.000000
    4f  4  3  0.00      0.000      0.000     0.000000

    Generation configuration: not available.
    Comment:
    magnesium, fhi98PP : Trouiller-Martins-type, LDA Ceperley/Alder Perdew/Wang (199
  </PP_INFO>
  <!--                               -->
  <!-- END OF HUMAN READABLE SECTION -->
  <!--                               -->
  <PP_HEADER generated="Generated using FHI98PP, converted with fhi2upf.x v.5.0.1"
             author="Abinit web site"
             date="10-Jul-2012, PG"
             comment="magnesium, fhi98PP : Trouiller-Martins-type, LDA Ceperley/Alder Perdew/Wang (199"
             element="Mg"
             pseudo_type="SL"
             relativistic="scalar"
             is_ultrasoft="F"
             is_paw="F"
             is_coulomb="F"
             has_so="F"
             has_wfc="F"
             has_gipaw="F"
             paw_as_gipaw="F"
             core_correction="T"
             functional="SLA-PW"
             z_valence="2.000000000000000E+000"
             total_psenergy="0.000000000000000E+000"
             wfc_cutoff="0.000000000000000E+000"
             rho_cutoff="0.000000000000000E+000"
             l_max="3"
             l_max_rho="0"
             l_local="2"
             mesh_size="489"
             number_of_wfc="4"
             number_of_proj="3"/>
  <PP_MESH dx="2.439988682353512E-002" mesh="489" xmin="-5.075173815233834E+000" rmax="7.725134331853100E+001"
zmesh="1.200000000000000E+001">
    <PP_R type="real" size="489" columns="4">
 5.208333333333300E-004  5.336979166666699E-004  5.468802552083300E-004  5.603881975119800E-004 
 5.742297859905200E-004  5.884132617044900E-004  6.029470692685900E-004  6.178398618795300E-004 
 6.331005064679500E-004  6.487380889777100E-004  6.647619197754600E-004  6.811815391939100E-004 
 6.980067232120000E-004  7.152474892753400E-004  7.329141022604400E-004  7.510170805862700E-004 
 7.695672024767500E-004  7.885755123779300E-004  8.080533275336600E-004  8.280122447237400E-004 
 8.484641471684200E-004  8.694212116034800E-004  8.908959155300899E-004  9.129010446436800E-004 
 9.354497004463800E-004  9.585553080474000E-004  9.822316241561700E-004  1.006492745272800E-003 
 1.031353116081100E-003  1.056827538048300E-003  1.082931178238100E-003  1.109679578340500E-003 
 1.137088663925600E-003  1.165174753924500E-003  1.193954570346500E-003  1.223445248234000E-003 
 1.253664345865400E-003  1.284629855208300E-003  1.316360212631900E-003  1.348874309883900E-003 
 1.382191505338100E-003  1.416331635519900E-003  1.451315026917200E-003  1.487162508082100E-003 
 1.523895422031700E-003  1.561535638955900E-003  1.600105569238100E-003  1.639628176798300E-003 
 1.680126992765200E-003  1.721626129486500E-003  1.764150294884800E-003  1.807724807168500E-003 
 1.852375609905600E-003  1.898129287470200E-003  1.945013080870700E-003  1.993054903968200E-003 
 2.042283360096300E-003  2.092727759090600E-003  2.144418134740200E-003  2.197385262668300E-003 
 2.251660678656200E-003  2.307276697419000E-003  2.364266431845200E-003  2.422663812711800E-003 
 2.482503608885800E-003  2.543821448025300E-003  2.606653837791500E-003  2.671038187584900E-003 
 2.737012830818300E-003  2.804617047739500E-003  2.873891088818700E-003  2.944876198712500E-003 
 3.017614640820700E-003  3.092149722448900E-003  3.168525820593400E-003  3.246788408362100E-003 
 3.326984082048600E-003  3.409160588875200E-003  3.493366855420400E-003  3.579653016749300E-003 
 3.668070446263000E-003  3.758671786285700E-003  3.851510979407000E-003  3.946643300598300E-003 
 4.044125390123100E-003  4.144015287259200E-003  4.246372464854500E-003  4.351257864736400E-003 
 4.458733933995400E-003  4.568864662165100E-003  4.681715619320500E-003  4.797353995117700E-003 
 4.915848638797200E-003  5.037270100175400E-003  5.161690671649800E-003  5.289184431239500E-003 
 5.419827286691100E-003  5.553697020672400E-003  5.690873337083000E-003  5.831437908509000E-003 
 5.975474424849100E-003  6.123068643142900E-003  6.274308438628500E-003  6.429283857062700E-003 
 6.588087168332100E-003  6.750812921389900E-003  6.917558000548200E-003  7.088421683161800E-003 
 7.263505698735900E-003  7.442914289494700E-003  7.626754272445200E-003  7.815135102974600E-003 
 8.008168940018000E-003  8.205970712836500E-003  8.408658189443601E-003  8.616352046722800E-003 
 8.829175942276900E-003  9.047256588051099E-003  9.270723825775999E-003  9.499710704272600E-003 
 9.734353558668200E-003  9.974792091567300E-003  1.022116945622900E-002  1.047363234179800E-002 
 1.073233106064000E-002  1.099741963783800E-002  1.126905590289300E-002  1.154740158369400E-002 
 1.183262240281100E-002  1.212488817616100E-002  1.242437291411200E-002  1.273125492509100E-002 
 1.304571692174000E-002  1.336794612970700E-002  1.369813439911100E-002  1.403647831876900E-002 
 1.438317933324300E-002  1.473844386277400E-002  1.510248342618400E-002  1.547551476681100E-002 
 1.585775998155100E-002  1.624944665309600E-002  1.665080798542700E-002  1.706208294266700E-002 
 1.748351639135100E-002  1.791535924621700E-002  1.835786861959900E-002  1.881130797450300E-002 
 1.927594728147300E-002  1.975206317932600E-002  2.023993913985500E-002  2.073986563660900E-002 
 2.125214031783400E-002  2.177706818368400E-002  2.231496176782100E-002  2.286614132348600E-002 
 2.343093501417600E-002  2.400967910902600E-002  2.460271818301900E-002  2.521040532214000E-002 
 2.583310233359700E-002  2.647117996123700E-002  2.712501810627900E-002  2.779500605350400E-002 
 2.848154270302600E-002  2.918503680779100E-002  2.990590721694300E-002  3.064458312520200E-002 
 3.140150432839400E-002  3.217712148530500E-002  3.297189638599200E-002  3.378630222672600E-002 
 3.462082389172700E-002  3.547595824185200E-002  3.635221441042600E-002  3.725011410636300E-002 
 3.817019192479100E-002  3.911299566533300E-002  4.007908665826700E-002  4.106904009872600E-002 
 4.208344538916400E-002  4.312290649027700E-002  4.418804228058700E-002  4.527948692491700E-002 
 4.639789025196300E-002  4.754391814118600E-002  4.871825291927300E-002  4.992159376637900E-002 
 5.115465713240900E-002  5.241817716357900E-002  5.371290613952000E-002  5.503961492116600E-002 
 5.639909340971900E-002  5.779215101693900E-002  5.921961714705700E-002  6.068234169058900E-002 
 6.218119553034700E-002  6.371707105994701E-002  6.529088271512699E-002  6.690356751819100E-002 
 6.855608563589000E-002  7.024942095109700E-002  7.198458164858899E-002  7.376260081530900E-002 
 7.558453705544700E-002  7.745147512071700E-002  7.936452655619800E-002  8.132483036213600E-002 
 8.333355367208101E-002  8.539189244778200E-002  8.750107219124199E-002  8.966234867436500E-002 
 9.187700868662201E-002  9.414637080118200E-002  9.647178615997100E-002  9.885463927812201E-002 
 1.012963488682900E-001  1.037983686853400E-001  1.063621883918700E-001  1.089893344451500E-001 
 1.116813710059400E-001  1.144399008697900E-001  1.172665664212700E-001  1.201630506118800E-001 
 1.231310779619900E-001  1.261724155876500E-001  1.292888742526700E-001  1.324823094467100E-001 
 1.357546224900400E-001  1.391077616655400E-001  1.425437233786800E-001  1.460645533461400E-001 
 1.496723478137900E-001  1.533692548047900E-001  1.571574753984700E-001  1.610392650408100E-001 
 1.650169348873200E-001  1.690928531790300E-001  1.732694466525500E-001  1.775492019848700E-001 
 1.819346672739000E-001  1.864284535555600E-001  1.910332363583900E-001  1.957517572964400E-001 
 2.005868257016600E-001  2.055413202964900E-001  2.106181909078100E-001  2.158204602232400E-001 
 2.211512255907500E-001  2.266136608628400E-001  2.322110182861600E-001  2.379466304378200E-001 
 2.438239122096400E-001  2.498463628412200E-001  2.560175680033900E-001  2.623412019330800E-001 
 2.688210296208200E-001  2.754609090524600E-001  2.822647935060500E-001  2.892367339056500E-001 
 2.963808812331200E-001  3.037014889995800E-001  3.112029157778700E-001  3.188896277975900E-001 
 3.267662016041900E-001  3.348373267838100E-001  3.431078087553700E-001  3.515825716316300E-001 
 3.602666611509300E-001  3.691652476813600E-001  3.782836292990900E-001  3.876272349427700E-001 
 3.972016276458600E-001  4.070125078487100E-001  4.170657167925700E-001  4.273672399973500E-001 
 4.379232108252900E-001  4.487399141326700E-001  4.598237900117500E-001  4.711814376250400E-001 
 4.828196191343800E-001  4.947452637270000E-001  5.069654717410500E-001  5.194875188930600E-001 
 5.323188606097100E-001  5.454671364667700E-001  5.589401747375000E-001  5.727459970535200E-001 
 5.868928231807400E-001  6.013890759133100E-001  6.162433860883600E-001  6.314645977247501E-001 
 6.470617732885500E-001  6.630441990887800E-001  6.794213908062700E-001  6.962030991591800E-001 
 7.133993157084100E-001  7.310202788064100E-001  7.490764796929300E-001  7.675786687413499E-001 
 7.865378618592600E-001  8.059653470471800E-001  8.258726911192500E-001  8.462717465898900E-001 
 8.671746587306600E-001  8.885938728013100E-001  9.105421414595000E-001  9.330325323535500E-001 
 9.560784359026800E-001  9.796935732694800E-001  1.003892004529200E+000  1.028688137041100E+000 
 1.054096734026000E+000  1.080132923356500E+000  1.106812206563400E+000  1.134150468065500E+000 
 1.162163984626700E+000  1.190869435047000E+000  1.220283910092600E+000  1.250424922671900E+000 
 1.281310418261900E+000  1.312958785593000E+000  1.345388867597100E+000  1.378619972626800E+000 
 1.412671885950700E+000  1.447564881533700E+000  1.483319734107500E+000  1.519957731540000E+000 
 1.557500687509000E+000  1.595970954490500E+000  1.635391437066400E+000  1.675785605562000E+000 
 1.717177510019300E+000  1.759591794516800E+000  1.803053711841400E+000  1.847589138523900E+000 
 1.893224590245400E+000  1.939987237624500E+000  1.987904922393800E+000  2.037006173976900E+000 
 2.087320226474200E+000  2.138877036068100E+000  2.191707298858900E+000  2.245842469140800E+000 
 2.301314778128500E+000  2.358157253148300E+000  2.416403737301100E+000  2.476088909612400E+000 
 2.537248305679800E+000  2.599918338830100E+000  2.664136321799200E+000  2.729940488947700E+000 
 2.797370019024700E+000  2.866465058494600E+000  2.937266745439400E+000  3.009817234051800E+000 
 3.084159719732800E+000  3.160338464810200E+000  3.238398824891000E+000  3.318387275865900E+000 
 3.400351441579700E+000  3.484340122186800E+000  3.570403323204800E+000  3.658592285287900E+000 
 3.748959514734500E+000  3.841558814748500E+000  3.936445317472800E+000  4.033675516814400E+000 
 4.133307302079700E+000  4.235399992441000E+000  4.340014372254300E+000  4.447212727249000E+000 
 4.557058881612100E+000  4.669618235987900E+000  4.784957806416800E+000  4.903146264235300E+000 
 5.024253976961900E+000  5.148353050192800E+000  5.275517370532600E+000  5.405822649584800E+000 
 5.539346469029500E+000  5.676168326814500E+000  5.816369684486900E+000  5.960034015693700E+000 
 6.107246855881300E+000  6.258095853221600E+000  6.412670820796200E+000  6.571063790069800E+000 
 6.733369065684500E+000  6.899683281606900E+000  7.070105458662600E+000  7.244737063491600E+000 
 7.423682068959800E+000  7.607047016063200E+000  7.794941077359900E+000  7.987476121970700E+000 
 8.184766782183400E+000  8.386930521703301E+000  8.594087705589400E+000  8.806361671917401E+000 
 9.023878805213799E+000  9.246768611702599E+000  9.475163796411600E+000  9.709200342182999E+000 
 9.949017590634901E+000  1.019475832512400E+001  1.044656885575400E+001  1.070459910649100E+001 
 1.096900270442200E+001  1.123993707122100E+001  1.151756351688000E+001  1.180204733574700E+001 
 1.209355790494000E+001  1.239226878519200E+001  1.269835782418600E+001  1.301200726244400E+001 
 1.333340384182600E+001  1.366273891671900E+001  1.400020856796200E+001  1.434601371959100E+001 
 1.470036025846400E+001  1.506345915684900E+001  1.543552659802300E+001  1.581678410499400E+001 
 1.620745867238700E+001  1.660778290159500E+001  1.701799513926500E+001  1.743833961920400E+001 
 1.786906660779900E+001  1.831043255301100E+001  1.876270023707100E+001  1.922613893292600E+001 
 1.970102456457000E+001  2.018763987131500E+001  2.068627457613600E+001  2.119722555816700E+001 
 2.172079702945300E+001  2.225730071608100E+001  2.280705604376800E+001  2.337039032804900E+001 
 2.394763896915200E+001  2.453914565169000E+001  2.514526254928700E+001  2.576635053425400E+001 
 2.640277939245000E+001  2.705492804344400E+001  2.772318476611700E+001  2.840794742984000E+001 
 2.910962373135700E+001  2.982863143752100E+001  3.056539863402800E+001  3.132036398028900E+001 
 3.209397697060200E+001  3.288669820177600E+001  3.369899964735900E+001  3.453136493864900E+001 
 3.538428965263400E+001  3.625828160705400E+001  3.715386116274800E+001  3.807156153346800E+001 
 3.901192910334500E+001  3.997552375219700E+001  4.096291918887700E+001  4.197470329284200E+001 
 4.301147846417500E+001  4.407386198224000E+001  4.516248637320100E+001  4.627799978661900E+001 
 4.742106638134900E+001  4.859236672096800E+001  4.979259817897600E+001  5.102247535399700E+001 
 5.228273049524100E+001  5.357411393847300E+001  5.489739455275300E+001  5.625336019820600E+001 
 5.764281819510200E+001  5.906659580452100E+001  6.052554072089300E+001  6.202052157669900E+001 
 6.355242845964300E+001  6.512217344259599E+001  6.673069112662900E+001  6.837893919745601E+001 
 7.006789899563300E+001  7.179857610082600E+001  7.357200093051600E+001  7.538922935350000E+001 
 7.725134331853100E+001
    </PP_R>
    <PP_RAB type="real" size="489" columns="4">
 1.270827438725779E-005  1.302216876462323E-005  1.334381633310926E-005  1.367340859653716E-005 
 1.401114178887148E-005  1.435721699105671E-005  1.471184025073579E-005  1.507522270492910E-005 
 1.544758070574074E-005  1.582913594917258E-005  1.622011560711716E-005  1.662075246261286E-005 
 1.703128504843940E-005  1.745195778913595E-005  1.788302114652758E-005  1.832473176884674E-005 
 1.877735264353724E-005  1.924115325383271E-005  1.971640973920226E-005  2.020340505976052E-005 
 2.070242916473669E-005  2.121377916510569E-005  2.173775951048390E-005  2.227468217039277E-005 
 2.282486682000150E-005  2.338864103045541E-005  2.396634046390763E-005  2.455830907336548E-005 
 2.516489930747912E-005  2.578647232037377E-005  2.642339818668718E-005  2.707605612189638E-005 
 2.774483470810940E-005  2.843013212539818E-005  2.913235638889710E-005  2.985192559170143E-005 
 3.058926815381695E-005  3.134482307721683E-005  3.211904020722299E-005  3.291238050034120E-005 
 3.372531629870128E-005  3.455833161127796E-005  3.541192240207551E-005  3.628659688540788E-005 
 3.718287582847677E-005  3.810129286144056E-005  3.904239479511788E-005  4.000674194655775E-005 
 4.099490847263729E-005  4.200748271191142E-005  4.304506753489523E-005  4.410828070300825E-005 
 4.519775523637348E-005  4.631413979071024E-005  4.745809904354044E-005  4.863031408991574E-005 
 4.983148284793875E-005  5.106232047428091E-005  5.232355978999717E-005  5.361595171681051E-005 
 5.494026572421557E-005  5.629729028760349E-005  5.768783335770610E-005  5.911272284164201E-005 
 6.057280709583101E-005  6.206895543109855E-005  6.360205863024608E-005  6.517302947841193E-005 
 6.678280330653000E-005  6.843233854820100E-005  7.012261731034240E-005  7.185464595790733E-005 
 7.362945571306766E-005  7.544810326917869E-005  7.731167141992770E-005  7.922126970400097E-005 
 8.117803506568873E-005  8.318313253181123E-005  8.523775590534653E-005  8.734312847620899E-005 
 8.950050374957116E-005  9.171116619218567E-005  9.397643199713371E-005  9.629764986746163E-005 
 9.867620181918845E-005  1.011135040041239E-004  1.036110075530257E-004  1.061701994395853E-004 
 1.087926033657433E-004  1.114797806688775E-004  1.142333312513968E-004  1.170548945333059E-004 
 1.199461504282809E-004  1.229088203438572E-004  1.259446682063521E-004  1.290555015110478E-004 
 1.322431723983703E-004  1.355095787566107E-004  1.388566653518988E-004  1.422864249860920E-004 
 1.458008996832467E-004  1.494021819054235E-004  1.530924157984868E-004  1.568737984687112E-004 
 1.607485812908872E-004  1.647190712487721E-004  1.687876323086160E-004  1.729566868266403E-004 
 1.772287169912583E-004  1.816062663009430E-004  1.860919410785758E-004  1.906884120232167E-004 
 1.953984158001884E-004  2.002247566704544E-004  2.051703081602156E-004  2.102380147717715E-004 
 2.154308937366354E-004  2.207520368119293E-004  2.262046121211849E-004  2.317918660405766E-004 
 2.375171251317804E-004  2.433837981225353E-004  2.493953779361616E-004  2.555554437711883E-004 
 2.618676632323266E-004  2.683357945141698E-004  2.749636886386796E-004  2.817552917480438E-004 
 2.887146474542146E-004  2.958458992463476E-004  3.031532929577280E-004  3.106411792937945E-004 
 3.183140164223330E-004  3.261763726279652E-004  3.342329290318817E-004  3.424884823789682E-004 
 3.509479478937385E-004  3.596163622067114E-004  3.684988863532045E-004  3.776008088461349E-004 
 3.869275488246288E-004  3.964846592806140E-004  4.062778303648337E-004  4.163128927748439E-004 
 4.265958212263856E-004  4.371327380106683E-004  4.479299166395425E-004  4.589937855805369E-004 
 4.703309320843707E-004  4.819481061068697E-004  4.938522243277009E-004  5.060503742685848E-004 
 5.185498185130374E-004  5.313579990302971E-004  5.444825416063456E-004  5.579312603840181E-004 
 5.717121625155007E-004  5.858334529296299E-004  6.003035392169932E-004  6.151310366356635E-004 
 6.303247732405679E-004  6.458937951396136E-004  6.618473718795486E-004  6.781950019649712E-004 
 6.949464185135170E-004  7.121115950508071E-004  7.297007514485514E-004  7.477243600093430E-004 
 7.661931517015619E-004  7.851181225485823E-004  8.045105401755315E-004  8.243819505178671E-004 
 8.447441846956796E-004  8.656093660576468E-004  8.869899173992769E-004  9.088985683590264E-004 
 9.313483629975146E-004  9.543526675635450E-004  9.779251784523713E-004  1.002079930360140E-003 
 1.026831304640022E-003  1.052194037864647E-003  1.078183230599908E-003  1.104814356395713E-003 
 1.132103270998701E-003  1.160066221792357E-003  1.188719857470621E-003  1.218081237950144E-003 
 1.248167844527523E-003  1.278997590287341E-003  1.310588830767453E-003  1.342960374887405E-003 
 1.376131496147129E-003  1.410121944101962E-003  1.444951956121271E-003  1.480642269437459E-003 
 1.517214133492575E-003  1.554689322589852E-003  1.593090148857804E-003  1.632439475534601E-003 
 1.672760730580298E-003  1.714077920625644E-003  1.756415645265095E-003  1.799799111703139E-003 
 1.844254149762203E-003  1.889807227261341E-003  1.936485465774679E-003  1.984316656779311E-003 
 2.033329278201766E-003  2.083552511373364E-003  2.135016258404281E-003  2.187751159986850E-003 
 2.241788613638530E-003  2.297160792395412E-003  2.353900663967574E-003  2.412042010367567E-003 
 2.471619448023606E-003  2.532668448389868E-003  2.595225359065149E-003  2.659327425434078E-003 
 2.725012812842173E-003  2.792320629319455E-003  2.861290948863552E-003  2.931964835300595E-003 
 3.004384366732435E-003  3.078592660590698E-003  3.154633899307412E-003  3.232553356620282E-003 
 3.312397424528712E-003  3.394213640914473E-003  3.478050717845089E-003  3.563958570576024E-003 
 3.651988347269260E-003  3.742192459446796E-003  3.834624613195173E-003  3.929339841141040E-003 
 4.026394535217272E-003  4.125846480236973E-003  4.227754888298777E-003  4.332180434039806E-003 
 4.439185290760679E-003  4.548833167442338E-003  4.661189346678351E-003  4.776320723541252E-003 
 4.894295845412670E-003  5.015184952794338E-003  5.139060021128278E-003  5.265994803650319E-003 
 5.396064875300384E-003  5.529347677720266E-003  5.665922565360149E-003  5.805870852724345E-003 
 5.949275862786779E-003  6.096222976597659E-003  6.246799684119422E-003  6.401095636317326E-003 
 6.559202698534191E-003  6.721215005188125E-003  6.887229015816131E-003  7.057343572506804E-003 
 7.231659958747733E-003  7.410281959728849E-003  7.593315924134160E-003  7.780870827460436E-003 
 7.973058336898696E-003  8.169992877820009E-003  8.371791701902161E-003  8.578574956939202E-003 
 8.790465758375568E-003  9.007590262607496E-003  9.230077742093910E-003  9.458060662323447E-003 
 9.691674760682922E-003  9.931059127271725E-003  1.017635628771526E-002  1.042771228802191E-002 
 1.068527678153619E-002  1.094920311804002E-002  1.121964843505568E-002  1.149677375140155E-002 
 1.178074406306120E-002  1.207172844141884E-002  1.236990013392171E-002  1.267543666722973E-002 
 1.298851995291009E-002  1.330933639574698E-002  1.363807700472195E-002  1.397493750673867E-002 
 1.432011846315507E-002  1.467382538919514E-002  1.503626887630804E-002  1.540766471755303E-002 
 1.578823403607656E-002  1.617820341676772E-002  1.657780504116181E-002  1.698727682567839E-002 
 1.740686256327260E-002  1.783681206858549E-002  1.827738132667960E-002  1.872883264544870E-002 
 1.919143481179125E-002  1.966546325164240E-002  2.015120019395808E-002  2.064893483874871E-002 
 2.115896352926580E-002  2.168158992843873E-002  2.221712519967111E-002  2.276588819210299E-002 
 2.332820563044787E-002  2.390441230952002E-002  2.449485129356429E-002  2.509987412051603E-002 
 2.571984101129240E-002  2.635512108427274E-002  2.700609257505414E-002  2.767314306165758E-002 
 2.835666969528009E-002  2.905707943675401E-002  2.977478929884035E-002  3.051022659452202E-002 
 3.126382919140681E-002  3.203604577243532E-002  3.282733610301332E-002  3.363817130475900E-002 
 3.446903413598700E-002  3.532041927914631E-002  3.619283363533921E-002  3.708679662613318E-002 
 3.800284050279774E-002  3.894151066321752E-002  3.990336597659862E-002  4.088897911622207E-002 
 4.189893690039077E-002  4.293384064183099E-002  4.399430650568507E-002  4.508096587637592E-002 
 4.619446573352141E-002  4.733546903714034E-002  4.850465512235708E-002  4.970272010387865E-002 
 5.093037729044617E-002  5.218835760951988E-002  5.347741004247302E-002  5.479830207052419E-002 
 5.615182013166423E-002  5.753877008891698E-002  5.895997771011413E-002  6.041628915955304E-002 
 6.190857150179337E-002  6.343771321788788E-002  6.500462473436962E-002  6.661023896531001E-002 
 6.825551186775297E-002  6.994142301088623E-002  7.166897615925470E-002  7.343919987038944E-002 
 7.525314810718613E-002  7.711190086543361E-002  7.901656481680953E-002  8.096827396778697E-002 
 8.296819033478918E-002  8.501750463606045E-002  8.711743700057081E-002  8.926923769448349E-002 
 9.147418786553695E-002  9.373360030581712E-002  9.604882023337109E-002  9.842122609313589E-002 
 1.008522303776360E-001  1.033432804679619E-001  1.058958594955208E-001  1.085114872250606E-001 
 1.111917209595208E-001  1.139381564672205E-001  1.167524289319608E-001  1.196362139265803E-001 
 1.225912284105666E-001  1.256192317523062E-001  1.287220267765890E-001  1.319014608379719E-001 
 1.351594269206687E-001  1.384978647656085E-001  1.419187620253210E-001  1.454241554473458E-001 
 1.490161320868944E-001  1.526968305494415E-001  1.564684422640134E-001  1.603332127879329E-001 
 1.642934431437942E-001  1.683514911894458E-001  1.725097730218253E-001  1.767707644154652E-001 
 1.811370022965262E-001  1.856110862532526E-001  1.901956800837065E-001  1.948935133817743E-001 
 1.997073831623047E-001  2.046401555264129E-001  2.096947673679160E-001  2.148742281219021E-001 
 2.201816215565141E-001  2.256201076089604E-001  2.311929242669004E-001  2.369033894962937E-001 
 2.427549032168516E-001  2.487509493263181E-001  2.548950977746644E-001  2.611910066896956E-001 
 2.676424245549475E-001  2.742531924414492E-001  2.810272462947491E-001  2.879686192782310E-001 
 2.950814441744045E-001  3.023699558455119E-001  3.098384937548901E-001  3.174915045506507E-001 
 3.253335447130428E-001  3.333692832674525E-001  3.416035045641595E-001  3.500411111269025E-001 
 3.586871265717151E-001  3.675466985980594E-001  3.766251020534273E-001  3.859277420741428E-001 
 3.954601573033655E-001  4.052280231887598E-001  4.152371553615368E-001  4.254935130989462E-001 
 4.360032028725062E-001  4.467724819834417E-001  4.578077622884481E-001  4.691156140169567E-001 
 4.807027696831933E-001  4.925761280943711E-001  5.047427584582904E-001  5.172099045922208E-001 
 5.299849892356311E-001  5.430756184697636E-001  5.564895862459619E-001  5.702348790262355E-001 
 5.843196805381881E-001  5.987523766474799E-001  6.135415603506791E-001  6.286960368913312E-001 
 6.442248290025454E-001  6.601371822789202E-001  6.764425706812078E-001  6.931507021770315E-001 
 7.102715245208030E-001  7.278152311764542E-001  7.457922673865182E-001  7.642133363909775E-001 
 7.830894057998313E-001  8.024317141230903E-001  8.222517774619096E-001  8.425613963652243E-001 
 8.633726628554546E-001  8.846979676279828E-001  9.065500074283882E-001  9.289417926118724E-001 
 9.518866548893939E-001  9.753982552651468E-001  9.994905921702140E-001  1.024178009796812E+000 
 1.049475206638788E+000  1.075397244242763E+000  1.101959556175552E+000  1.129177957213086E+000 
 1.157068652756262E+000  1.185648248479334E+000  1.214933760216775E+000  1.244942624094137E+000 
 1.275692706909269E+000  1.307202316769916E+000  1.339490213994127E+000  1.372575622279782E+000 
 1.406478240150100E+000  1.441218252681807E+000  1.476816343523055E+000  1.513293707208073E+000 
 1.550672061776102E+000  1.588973661701967E+000  1.628221311146027E+000  1.668438377531316E+000 
 1.709648805456335E+000  1.751877130951128E+000  1.795148496085611E+000  1.839488663938932E+000 
 1.884924033938213E+000
    </PP_RAB>
  </PP_MESH>
  <PP_NLCC type="real" size="489" columns="4">
 2.051392068969517E-001  2.051392068941108E-001  2.051392068910630E-001  2.051392068877844E-001 
 2.051392068842511E-001  2.051392068804473E-001  2.051392068763650E-001  2.051392068719644E-001 
 2.051392068672295E-001  2.051392068621365E-001  2.051392068566616E-001  2.051392068507649E-001 
 2.051392068444226E-001  2.051392068376028E-001  2.051392068302578E-001  2.051392068223558E-001 
 2.051392068138569E-001  2.051392068047134E-001  2.051392067948777E-001  2.051392067842938E-001 
 2.051392067729063E-001  2.051392067606514E-001  2.051392067474654E-001  2.051392067332847E-001 
 2.051392067180217E-001  2.051392067015970E-001  2.051392066839307E-001  2.051392066649276E-001 
 2.051392066444762E-001  2.051392066224651E-001  2.051392065987908E-001  2.051392065733260E-001 
 2.051392065459196E-001  2.051392065164281E-001  2.051392064847085E-001  2.051392064505778E-001 
 2.051392064138528E-001  2.051392063743425E-001  2.051392063318322E-001  2.051392062860991E-001 
 2.051392062368884E-001  2.051392061839455E-001  2.051392061269839E-001  2.051392060656934E-001 
 2.051392059997555E-001  2.051392059288122E-001  2.051392058524894E-001  2.051392057703655E-001 
 2.051392056820106E-001  2.051392055869553E-001  2.051392054846823E-001  2.051392053746426E-001 
 2.051392052562552E-001  2.051392051288835E-001  2.051392049918511E-001  2.051392048444100E-001 
 2.051392046857802E-001  2.051392045151184E-001  2.051392043315013E-001  2.051392041339503E-001 
 2.051392039214147E-001  2.051392036927489E-001  2.051392034467272E-001  2.051392031820445E-001 
 2.051392028972766E-001  2.051392025908953E-001  2.051392022612775E-001  2.051392019066484E-001 
 2.051392015251063E-001  2.051392011146298E-001  2.051392006730066E-001  2.051392001978734E-001 
 2.051391996867075E-001  2.051391991367556E-001  2.051391985450971E-001  2.051391979085489E-001 
 2.051391972237211E-001  2.051391964869451E-001  2.051391956942899E-001  2.051391948415059E-001 
 2.051391939240572E-001  2.051391929370180E-001  2.051391918751283E-001  2.051391907327141E-001 
 2.051391895036560E-001  2.051391881814047E-001  2.051391867588937E-001  2.051391852285155E-001 
 2.051391835821053E-001  2.051391818108700E-001  2.051391799053476E-001  2.051391778553603E-001 
 2.051391756499662E-001  2.051391732773957E-001  2.051391707249722E-001  2.051391679790879E-001 
 2.051391650250766E-001  2.051391618471822E-001  2.051391584284464E-001  2.051391547506224E-001 
 2.051391507940941E-001  2.051391465377658E-001  2.051391419589338E-001  2.051391370331758E-001 
 2.051391317342393E-001  2.051391260338663E-001  2.051391199016661E-001  2.051391133049722E-001 
 2.051391062086273E-001  2.051390985748162E-001  2.051390903628747E-001  2.051390815290592E-001 
 2.051390720263314E-001  2.051390618040879E-001  2.051390508079057E-001  2.051390389792557E-001 
 2.051390262551841E-001  2.051390125679863E-001  2.051389978448490E-001  2.051389820074520E-001 
 2.051389649715785E-001  2.051389466466534E-001  2.051389269352501E-001  2.051389057326206E-001 
 2.051388829260992E-001  2.051388583945213E-001  2.051388320075946E-001  2.051388036252071E-001 
 2.051387730966869E-001  2.051387402599902E-001  2.051387049408902E-001  2.051386669520218E-001 
 2.051386260919107E-001  2.051385821439151E-001  2.051385348750880E-001  2.051384840349513E-001 
 2.051384293541671E-001  2.051383705431529E-001  2.051383072905381E-001  2.051382392615323E-001 
 2.051381660962064E-001  2.051380874075516E-001  2.051380027794969E-001  2.051379117647214E-001 
 2.051378138823147E-001  2.051377086152618E-001  2.051375954077460E-001  2.051374736622598E-001 
 2.051373427364698E-001  2.051372019398902E-001  2.051370505302861E-001  2.051368877097978E-001 
 2.051367126208109E-001  2.051365243415000E-001  2.051363218810459E-001  2.051361041744715E-001 
 2.051358700771740E-001  2.051356183589653E-001  2.051353476977216E-001  2.051350566725551E-001 