<UPF version="2.0.1">
  <PP_INFO>
    Generated using FHI98PP, converted with fhi2upf.x v.5.0.1
    Author: Abinit web site
    Generation date: 10-Jul-2012, PG
    Pseudopotential type: SL
    Element: Mn
    Functional: SLA-PW

    Suggested minimum cutoff for wavefunctions:   0. Ry
    Suggested minimum cutoff for charge density:   0. Ry
    The Pseudo was generated with a Non-Relativistic Calculation
    L component and cutoff radius for Local Potential:  1   0.0000

    Valence configuration: 
    nl pn  l   occ       Rcut    Rcut US       E pseu
    4s  4  0  2.00      0.000      0.000     0.000000
    4p  4  1  0.00      0.000      0.000     0.000000
    3d  3  2  5.00      0.000      0.000     0.000000
    4f  4  3  0.00      0.000      0.000     0.000000

    Generation configuration: not available.
    Comment:
    manganese, fhi98PP : Trouiller-Martins-type, LDA Ceperley/Alder Perdew/Wang (199
  </PP_INFO>
  <!--                               -->
  <!-- END OF HUMAN READABLE SECTION -->
  <!--                               -->
  <PP_HEADER generated="Generated using FHI98PP, converted with fhi2upf.x v.5.0.1"
             author="Abinit web site"
             date="10-Jul-2012, PG"
             comment="manganese, fhi98PP : Trouiller-Martins-type, LDA Ceperley/Alder Perdew/Wang (199"
             element="Mn"
             pseudo_type="SL"
             relativistic="no"
             is_ultrasoft="F"
             is_paw="F"
             is_coulomb="F"
             has_so="F"
             has_wfc="F"
             has_gipaw="F"
             paw_as_gipaw="F"
             core_correction="F"
             functional="SLA-PW"
             z_valence="7.000000000000000E+000"
             total_psenergy="0.000000000000000E+000"
             wfc_cutoff="0.000000000000000E+000"
             rho_cutoff="0.000000000000000E+000"
             l_max="3"
             l_max_rho="0"
             l_local="1"
             mesh_size="519"
             number_of_wfc="4"
             number_of_proj="3"/>
  <PP_MESH dx="2.439988682353512E-002" mesh="519" xmin="-5.075173815233827E+000" rmax="7.709910980236199E+001"
zmesh="2.500000000000000E+001">
    <PP_R type="real" size="519" columns="4">
 2.500000000000000E-004  2.561750000000000E-004  2.625025225000000E-004  2.689863348057500E-004 
 2.756302972754500E-004  2.824383656181600E-004  2.894145932489200E-004  2.965631337021700E-004 
 3.038882431046200E-004  3.113942827093000E-004  3.190857214922200E-004  3.269671388130800E-004 
 3.350432271417600E-004  3.433187948521600E-004  3.517987690850100E-004  3.604881986814100E-004 
 3.693922571888400E-004  3.785162459414100E-004  3.878655972161600E-004  3.974458774674000E-004 
 4.072627906408400E-004  4.173221815696700E-004  4.276300394544400E-004  4.381925014289700E-004 
 4.490158562142600E-004  4.601065478627500E-004  4.714711795949600E-004  4.831165177309600E-004 
 4.950494957189100E-004  5.072772182631700E-004  5.198069655542700E-004  5.326461976034600E-004 
 5.458025586842700E-004  5.592838818837700E-004  5.730981937663000E-004  5.872537191523300E-004 
 6.017588860153901E-004  6.166223304999700E-004  6.318529020633200E-004  6.474596687442800E-004 
 6.634519225622600E-004  6.798391850495500E-004  6.966312129202800E-004  7.138380038794100E-004 
 7.314698025752300E-004  7.495371066988400E-004  7.680506732343000E-004  7.870215248631800E-004 
 8.064609565273100E-004  8.263805421535300E-004  8.467921415447200E-004  8.677079074408800E-004 
 8.891402927546700E-004  9.111020579857100E-004  9.336062788179500E-004  9.566663539047600E-004 
 9.802960128462001E-004  1.004509324363500E-003  1.029320704675300E-003  1.054744926080800E-003 
 1.080797125755000E-003  1.107492814761100E-003  1.134847887285700E-003  1.162878630101700E-003 
 1.191601732265200E-003  1.221034295052100E-003  1.251193842139900E-003  1.282098330040800E-003 
 1.313766158792800E-003  1.346216182915000E-003  1.379467722633000E-003  1.413540575382000E-003 
 1.448455027593900E-003  1.484231866775500E-003  1.520892393884800E-003  1.558458436013800E-003 
 1.596952359383300E-003  1.636397082660100E-003  1.676816090601800E-003  1.718233448039700E-003 
 1.760673814206300E-003  1.804162457417200E-003  1.848725270115400E-003  1.894388784287200E-003 
 1.941180187259100E-003  1.989127337884400E-003  2.038258783130100E-003  2.088603775073500E-003 
 2.140192288317800E-003  2.193055037839200E-003  2.247223497273900E-003  2.302729917656500E-003 
 2.359607346622600E-003  2.417889648084200E-003  2.477611522391900E-003  2.538808526995000E-003 
 2.601517097611700E-003  2.665774569922800E-003  2.731619201799800E-003  2.799090196084300E-003 
 2.868227723927600E-003  2.939072948708600E-003  3.011668050541700E-003  3.086056251390100E-003 
 3.162281840799400E-003  3.240390202267200E-003  3.320427840263200E-003  3.402442407917700E-003 
 3.486482735393200E-003  3.572598858957400E-003  3.660842050773700E-003  3.751264849427800E-003 
 3.843921091208700E-003  3.938865942161500E-003  4.036155930932900E-003  4.135848982426900E-003 
 4.238004452292900E-003  4.342683162264500E-003  4.449947436372500E-003  4.559861138050900E-003 
 4.672489708160700E-003  4.787900203952300E-003  4.906161338989900E-003  5.027343524063000E-003 
 5.151518909107300E-003  5.278761426162300E-003  5.409146833388500E-003  5.542752760173200E-003 
 5.679658753349400E-003  5.819946324557200E-003  5.963698998773700E-003  6.111002364043400E-003 
 6.261944122435300E-003  6.416614142259500E-003  6.575104511573300E-003  6.737509593009100E-003 
 6.903926079956500E-003  7.074453054131400E-003  7.249192044568400E-003  7.428247088069300E-003 
 7.611724791144600E-003  7.799734393485900E-003  7.992387833005000E-003  8.189799812480201E-003 
 8.392087867848400E-003  8.599372438184301E-003  8.811776937407400E-003  9.029427827761401E-003 
 9.252454695107101E-003  9.480990326076300E-003  9.715170787130301E-003  9.955135505572499E-003 
 1.020102735256000E-002  1.045299272816800E-002  1.071118164855400E-002  1.097574783527300E-002 
 1.124684880680500E-002  1.152464597233300E-002  1.180930472784900E-002  1.210099455462700E-002 
 1.239988912012600E-002  1.270616638139400E-002  1.302000869101400E-002  1.334160290568200E-002 
 1.367114049745200E-002  1.400881766773900E-002  1.435483546413300E-002  1.470939990009700E-002 
 1.507272207762900E-002  1.544501831294700E-002  1.582651026527600E-002  1.621742506882900E-002 
 1.661799546802900E-002  1.702845995608900E-002  1.744906291700400E-002  1.788005477105400E-002 
 1.832169212389900E-002  1.877423791936000E-002  1.923796159596800E-002  1.971313924738800E-002 
 2.020005378679900E-002  2.069899511533300E-002  2.121026029468200E-002  2.173415372396000E-002 
 2.227098732094200E-002  2.282108070776900E-002  2.338476140125100E-002  2.396236500786200E-002 
 2.455423542355600E-002  2.516072503851800E-002  2.578219494697000E-002  2.641901516216000E-002 
 2.707156483666500E-002  2.774023248813100E-002  2.842541623058700E-002  2.912752401148300E-002 
 2.984697385456700E-002  3.058419410877400E-002  3.133962370326100E-002  3.211371240873200E-002 
 3.290692110522700E-002  3.371972205652600E-002  3.455259919132300E-002  3.540604839134800E-002 
 3.628057778661500E-002  3.717670805794400E-002  3.809497274697500E-002  3.903591857382500E-002 
 4.000010576259900E-002  4.098810837493500E-002  4.200051465179600E-002  4.303792736369500E-002 
 4.410096416957900E-002  4.519025798456700E-002  4.630645735678600E-002  4.745022685349900E-002 
 4.862224745678000E-002  4.982321696896300E-002  5.105385042809600E-002  5.231488053367000E-002 
 5.360705808285200E-002  5.493115241749800E-002  5.628795188221000E-002  5.767826429370100E-002 
 5.910291742175500E-002  6.056275948207300E-002  6.205865964128000E-002  6.359150853441900E-002 
 6.516221879521900E-002  6.677172559946100E-002  6.842098722176800E-002  7.011098560614600E-002 
 7.184272695061800E-002  7.361724230629800E-002  7.543558819126300E-002  7.729884721958800E-002 
 7.920812874591100E-002  8.116456952593500E-002  8.316933439322600E-002  8.522361695273900E-002 
 8.732864029147100E-002  8.948565770667100E-002  9.169595345202500E-002  9.396084350229000E-002 
 9.628167633679700E-002  9.865983374231600E-002  1.010967316357500E-001  1.035938209071500E-001 
 1.061525882835600E-001  1.087745572141600E-001  1.114612887773500E-001  1.142143826101600E-001 
 1.170354778606300E-001  1.199262541637800E-001  1.228884326416300E-001  1.259237769278800E-001 
 1.290340942180000E-001  1.322212363451800E-001  1.354871008829100E-001  1.388336322747100E-001 
 1.422628229919000E-001  1.457767147198000E-001  1.493773995733800E-001  1.530670213428400E-001 
 1.568477767700100E-001  1.607219168562300E-001  1.646917482025800E-001  1.687596343831800E-001 
 1.729279973524500E-001  1.771993188870500E-001  1.815761420635600E-001  1.860610727725300E-001 
 1.906567812700100E-001  1.953660037673800E-001  2.001915440604400E-001  2.051362751987300E-001 
 2.102031411961400E-001  2.153951587836800E-001  2.207154192056400E-001  2.261670900600200E-001 
 2.317534171845000E-001  2.374777265889600E-001  2.433434264357000E-001  2.493540090686700E-001 
 2.555130530926600E-001  2.618242255040500E-001  2.682912838740000E-001  2.749180785856900E-001 
 2.817085551267600E-001  2.886667564383900E-001  2.957968253224100E-001  3.031030069078800E-001 
 3.105896511785000E-001  3.182612155626100E-001  3.261222675870100E-001  3.341774875964100E-001 
 3.424316715400400E-001  3.508897338270800E-001  3.595567102526100E-001  3.684377609958500E-001 
 3.775381736924400E-001  3.868633665826500E-001  3.964188917372400E-001  4.062104383631500E-001 
 4.162438361907200E-001  4.265250589446300E-001  4.370602279005600E-001  4.478556155297000E-001 
 4.589176492332900E-001  4.702529151693500E-001  4.818681621740300E-001  4.937703057797300E-001 
 5.059664323324899E-001  5.184638032111000E-001  5.312698591504200E-001  5.443922246714300E-001 
 5.578387126208200E-001  5.716173288225500E-001  5.857362768444700E-001  6.002039628825300E-001 
 6.150290007657200E-001  6.302202170846400E-001  6.457866564466300E-001  6.617375868608600E-001 
 6.780825052563200E-001  6.948311431361500E-001  7.119934723716200E-001  7.295797111391999E-001 
 7.476003300043400E-001  7.660660581554400E-001  7.849878897918799E-001  8.043770906697399E-001 
 8.242452048092800E-001  8.446040613680700E-001  8.654657816838600E-001  8.868427864914600E-001 
 9.087478033177900E-001  9.311938740597400E-001  9.541943627490200E-001  9.777629635089200E-001 
 1.001913708707600E+000  1.026660977312700E+000  1.052019503452300E+000  1.078004385187600E+000 
 1.104631093501700E+000  1.131915481511200E+000  1.159873793904500E+000  1.188522676614000E+000 
 1.217879186726300E+000  1.247960802638500E+000  1.278785434463600E+000  1.310371434694900E+000 
 1.342737609131800E+000  1.375903228077400E+000  1.409888037810900E+000  1.444712272344800E+000 
 1.480396665471800E+000  1.516962463108900E+000  1.554431435947700E+000  1.592825892415600E+000 
 1.632168691958300E+000  1.672483258649600E+000  1.713793595138300E+000  1.756124296938200E+000 
 1.799500567072600E+000  1.843948231079300E+000  1.889493752386900E+000  1.936164248070900E+000 
 1.983987504998200E+000  2.032991996371700E+000  2.083206898682100E+000  2.134662109079500E+000 
 2.187388263173800E+000  2.241416753274200E+000  2.296779747080100E+000  2.353510206832900E+000 
 2.411641908941700E+000  2.471209464092600E+000  2.532248337855600E+000  2.594794871800700E+000 
 2.658886305134200E+000  2.724560796871000E+000  2.791857448553700E+000  2.860816327533000E+000 
 2.931478490823000E+000  3.003886009546400E+000  3.078081993982100E+000  3.154110619233500E+000 
 3.232017151528600E+000  3.311847975171300E+000  3.393650620158100E+000  3.477473790476000E+000 
 3.563367393100700E+000  3.651382567710300E+000  3.741571717132800E+000  3.833988538545900E+000 
 3.928688055448000E+000  4.025726650417600E+000  4.125162098682900E+000  4.227053602520400E+000 
 4.331461826502600E+000  4.438448933617200E+000  4.548078622277600E+000  4.660416164247800E+000 
 4.775528443504800E+000  4.893483996059300E+000  5.014353050762000E+000  5.138207571115800E+000 
 5.265121298122400E+000  5.395169794186000E+000  5.528430488102400E+000  5.664982721158500E+000 
 5.804907794371100E+000  5.948289016892100E+000  6.095211755609300E+000  6.245763485972900E+000 
 6.400033844076400E+000  6.558114680025100E+000  6.720100112621700E+000  6.886086585403500E+000 
 7.056172924062900E+000  7.230460395287300E+000  7.409052767050900E+000  7.592056370397000E+000 
 7.779580162745800E+000  7.971735792765700E+000  8.168637666846999E+000  8.370403017218100E+000 
 8.577151971743399E+000  8.789007625445400E+000  9.006096113793900E+000  9.228546687804700E+000 
 9.456491790993400E+000  9.690067138231001E+000  9.929411796545301E+000  1.017466826792000E+001 
 1.042598257413800E+001  1.068350434371900E+001  1.094738690100900E+001  1.121778735746400E+001 
 1.149486670519300E+001  1.177878991281100E+001  1.206972602365800E+001  1.236784825644200E+001 
 1.267333410837600E+001  1.298636546085300E+001  1.330712868773600E+001  1.363581476632300E+001 
 1.397261939105100E+001  1.431774309001000E+001  1.467139134433300E+001  1.503377471053800E+001 
 1.540510894588900E+001  1.578561513685200E+001  1.617551983073200E+001  1.657505517055200E+001 
 1.698445903326400E+001  1.740397517138600E+001  1.783385335811900E+001  1.827434953606500E+001 
 1.872572596960500E+001  1.918825140105500E+001  1.966220121066100E+001  2.014785758056400E+001 
 2.064550966280400E+001  2.115545375147500E+001  2.167799345913700E+001  2.221343989757700E+001 
 2.276211186304700E+001  2.332433602606500E+001  2.390044712590900E+001  2.449078816991800E+001 
 2.509571063771500E+001  2.571557469046700E+001  2.635074938532200E+001  2.700161289513900E+001 
 2.766855273364900E+001  2.835196598617000E+001  2.905225954602800E+001  2.976985035681500E+001 
 3.050516566062900E+001  3.125864325244600E+001  3.203073174078200E+001  3.282189081477900E+001 
 3.363259151790400E+001  3.446331652839600E+001  3.531456044664800E+001  3.618683008968000E+001 
 3.708064479289500E+001  3.799653671927900E+001  3.893505117624600E+001  3.989674694029900E+001 
 4.088219658972400E+001  4.189198684549000E+001  4.292671892057400E+001  4.398700887791200E+001 
 4.507348799719700E+001  4.618680315072700E+001  4.732761718855000E+001  4.849660933310800E+001 
 4.969447558363500E+001  5.092192913055100E+001  5.217970078007600E+001  5.346853938934400E+001 
 5.478921231226000E+001  5.614250585637300E+001  5.752922575102600E+001  5.895019762707600E+001 
 6.040626750846500E+001  6.189830231592400E+001  6.342719038312700E+001  6.499384198559000E+001 
 6.659918988263399E+001  6.824418987273501E+001  6.992982136259199E+001  7.165708795024800E+001 
 7.342701802261900E+001  7.524066536777801E+001  7.709910980236199E+001
    </PP_R>
    <PP_RAB type="real" size="519" columns="4">
 6.099971705883781E-006  6.250641007019109E-006  6.405031839892481E-006  6.563236126337826E-006 
 6.725348058658320E-006  6.891464155707337E-006  7.061683320353099E-006  7.236106898365863E-006 
 7.414838738755654E-006  7.597985255602818E-006  7.785655491416216E-006  7.977961182054250E-006 
 8.175016823250914E-006  8.376939738785177E-006  8.583850150333209E-006  8.795871249046445E-006 
 9.013129268897874E-006  9.235753561839788E-006  9.463876674817163E-006  9.697634428685168E-006 
 9.937165999073574E-006  1.018261399925072E-005  1.043412456503220E-005  1.069184744178862E-005 
 1.095593607360066E-005  1.122654769461855E-005  1.150384342267562E-005  1.178798835521582E-005 
 1.207915166758954E-005  1.237750671377907E-005  1.268323112960941E-005  1.299650693851075E-005 
 1.331752065989208E-005  1.364646342019137E-005  1.398353106667012E-005  1.432892428401693E-005 
 1.468284871383209E-005  1.504551507706374E-005  1.541713929946723E-005  1.579794264016397E-005 
 1.618815182337593E-005  1.658799917341337E-005  1.699772275299683E-005  1.741756650499583E-005 
 1.784778039766919E-005  1.828862057349166E-005  1.874034950165687E-005  1.920323613434762E-005 
 1.967755606686624E-005  2.016359170171773E-005  2.066163241675010E-005  2.117197473744396E-005 
 2.169492251345883E-005  2.223078709954126E-005  2.277988754089975E-005  2.334255076316014E-005 
 2.391911176701001E-005  2.450991382765513E-005  2.511530869919874E-005  2.573565682406944E-005 
 2.637132754762406E-005  2.702269933804919E-005  2.769016001169902E-005  2.837410696398904E-005 
 2.907494740599928E-005  2.979309860692623E-005  3.052898814251763E-005  3.128305414963890E-005 
 3.205574558713479E-005  3.284752250313745E-005  3.365885630896494E-005  3.449023005979552E-005 
 3.534213874227160E-005  3.621508956920646E-005  3.710960228156452E-005  3.802620945792027E-005 
 3.896545683152990E-005  3.992790361526949E-005  4.091412283456654E-005  4.192470166858120E-005 
 4.296024179979562E-005  4.402135977225068E-005  4.510868735862515E-005  4.622287193638197E-005 
 4.736457687321075E-005  4.853448192197906E-005  4.973328362545086E-005  5.096169573100160E-005 
 5.222044961555697E-005  5.351029472106001E-005  5.483199900067194E-005  5.618634937598695E-005 
 5.757415220557345E-005  5.899623376505164E-005  6.045344073904891E-005  6.194664072530391E-005 
 6.347672275121706E-005  6.504459780317434E-005  6.665119936891047E-005  6.829748399332365E-005 
 6.998443184795918E-005  7.171304731460348E-005  7.348435958327413E-005  7.529942326498149E-005 
 7.715931901962567E-005  7.906515419941176E-005  8.101806350813724E-005  8.301920967678819E-005 
 8.506978415580322E-005  8.717100782445127E-005  8.932413171771649E-005  9.153043777114384E-005 
 9.379123958409190E-005  9.610788320181762E-005  9.848174791690279E-005  1.009142470904493E-004 
 1.034068289935847E-004  1.059609776697254E-004  1.085782138181693E-004  1.112600956994780E-004 
 1.140082200632537E-004  1.168242230988168E-004  1.197097814093571E-004  1.226666130101694E-004 
 1.256964783515192E-004  1.288011813668030E-004  1.319825705465628E-004  1.352425400390630E-004 
 1.385830307780259E-004  1.420060316382449E-004  1.455135806197080E-004  1.491077660610145E-004 
 1.527907278827223E-004  1.565646588614267E-004  1.604318059353037E-004  1.643944715419042E-004 
 1.684550149889911E-004  1.726158538592186E-004  1.768794654495401E-004  1.812483882461452E-004 
 1.857252234358247E-004  1.903126364546903E-004  1.950133585751211E-004  1.998301885319261E-004 
 2.047659941886631E-004  2.098237142451242E-004  2.150063599869775E-004  2.203170170786568E-004 
 2.257588474004994E-004  2.313350909312931E-004  2.370490676772939E-004  2.429041796489251E-004 
 2.489039128862501E-004  2.550518395345348E-004  2.613516199710440E-004  2.678070049843218E-004 
 2.744218380074530E-004  2.812000574062351E-004  2.881456988241538E-004  2.952628975851136E-004 
 3.025558911554589E-004  3.100290216670204E-004  3.176867385021853E-004  3.255336009431881E-004 
 3.335742808864764E-004  3.418135656243708E-004  3.502563606953134E-004  3.589076928044856E-004 
 3.677727128167468E-004  3.768566988233341E-004  3.861650592842512E-004  3.957033362485888E-004 
 4.054772086539272E-004  4.154924957076714E-004  4.257551603516412E-004  4.362713128123268E-004 
 4.470472142387904E-004  4.580892804305055E-004  4.694040856571343E-004  4.809983665728555E-004 
 4.928790262272177E-004  5.050531381750315E-004  5.175279506879615E-004  5.303108910699383E-004 
 5.434095700793704E-004  5.568317864603244E-004  5.705855315858970E-004  5.846789942160711E-004 
 5.991205653732034E-004  6.139188433379255E-004  6.290826387683871E-004  6.446209799459624E-004 
 6.605431181506190E-004  6.768585331689485E-004  6.935769389382011E-004  7.107082893299869E-004 
 7.282627840764466E-004  7.462508748431152E-004  7.646832714517471E-004  7.835709482566163E-004 
 8.029251506785380E-004  8.227574019002953E-004  8.430795097272524E-004  8.639035736174989E-004 
 8.852419918858683E-004  9.071074690854397E-004  9.295130235718449E-004  9.524719952540624E-004 
 9.759980535368506E-004  1.000105205459206E-003  1.024807804034051E-003  1.050120556793683E-003 
 1.076058534546505E-003  1.102637180349789E-003  1.129872318704434E-003  1.157780164976443E-003 
 1.186377335051351E-003  1.215680855227132E-003  1.245708172351233E-003  1.276477164208309E-003 
 1.308006150164263E-003  1.340313902073309E-003  1.373419655454515E-003  1.407343120944251E-003 
 1.442104496031564E-003  1.477724477083560E-003  1.514224271667519E-003  1.551625611177691E-003 
 1.589950763773777E-003  1.629222547638991E-003  1.669464344565682E-003  1.710700113876462E-003 
 1.752954406689216E-003  1.796252380534433E-003  1.840619814333620E-003  1.886083123747680E-003 
 1.932669376904227E-003  1.980406310513761E-003  2.029322346383461E-003  2.079446608339141E-003 
 2.130808939565102E-003  2.183439920372376E-003  2.237370886405555E-003  2.292633947299771E-003 
 2.349262005798086E-003  2.407288777341302E-003  2.466748810141603E-003  2.527677505752027E-003 
 2.590111140144184E-003  2.654086885305650E-003  2.719642831372705E-003  2.786818009307842E-003 
 2.855652414137722E-003  2.926187028766740E-003  2.998463848377391E-003  3.072525905432355E-003 
 3.148417295296567E-003  3.226183202490280E-003  3.305869927591889E-003  3.387524914803217E-003 
 3.471196780198970E-003  3.556935340669886E-003  3.644791643584456E-003  3.734817997180931E-003 
 3.827068001711345E-003  3.921596581353634E-003  4.018460016913096E-003  4.117715979330758E-003 
 4.219423564020362E-003  4.323643326051530E-003  4.430437316204999E-003  4.539869117915265E-003 
 4.652003885127735E-003  4.766908381090408E-003  4.884651018103481E-003  5.005301898250567E-003 
 5.128932855137389E-003  5.255617496659169E-003  5.385431248826726E-003  5.518451400672763E-003 
 5.654757150269319E-003  5.794429651881041E-003  5.937552064282325E-003  6.084209600270298E-003 
 6.234489577396824E-003  6.388481469958558E-003  6.546276962266533E-003  6.707970003234570E-003 
 6.873656862314549E-003  7.043436186813695E-003  7.217409060627791E-003  7.395679064425456E-003 
 7.578352337316652E-003  7.765537640048398E-003  7.957346419757681E-003  8.153892876325715E-003 
 8.355294030370929E-003  8.561669792921115E-003  8.773143036806295E-003  8.989839669815423E-003 
 9.211888709659681E-003  9.439422360788440E-003  9.672576093099877E-003  9.911488722599450E-003 
 1.015630249404766E-002  1.040716316565062E-002  1.066422009584213E-002  1.092762633220934E-002 
 1.119753870261507E-002  1.147411790856960E-002  1.175752862091120E-002  1.204793957784774E-002 
 1.234552368542060E-002  1.265045812045042E-002  1.296292443602569E-002  1.328310866959540E-002 
 1.361120145373454E-002  1.394739812964168E-002  1.429189886344390E-002  1.464490876537101E-002 
 1.500663801187546E-002  1.537730197076895E-002  1.575712132944693E-002  1.614632222628423E-002 
 1.654513638527337E-002  1.695380125398959E-002  1.737256014496331E-002  1.780166238054393E-002 
 1.824136344134340E-002  1.869192511834441E-002  1.915361566876753E-002  1.962670997578610E-002 
 2.011148971218796E-002  2.060824350807902E-002  2.111726712272854E-002  2.163886362066015E-002 
 2.217334355209023E-002  2.272102513782687E-002  2.328223445873131E-002  2.385730564986195E-002 
 2.444658109941377E-002  2.505041165256984E-002  2.566915682038774E-002  2.630318499385200E-002 
 2.695287366319932E-002  2.761860964268054E-002  2.830078930085410E-002  2.899981879658663E-002 
 2.971611432086071E-002  3.045010234458745E-002  3.120221987249703E-002  3.197291470334891E-002 
 3.276264569652006E-002  3.357188304522519E-002  3.440110855644197E-002  3.525081593778537E-002 
 3.612151109145070E-002  3.701371241540823E-002  3.792795111206906E-002  3.886477150453697E-002 
 3.982473136069988E-002  4.080840222530745E-002  4.181636976027389E-002  4.284923409335226E-002 
 4.390761017545872E-002  4.499212814679271E-002  4.610343371201706E-002  4.724218852470494E-002 
 4.840907058126390E-002  4.960477462462220E-002  5.083001255785084E-002  5.208551386802859E-002 
 5.337202606056977E-002  5.469031510426602E-002  5.604116588734206E-002  5.742538268475750E-002 
 5.884378963707167E-002  6.029723124110831E-002  6.178657285276157E-002  6.331270120222640E-002 
 6.487652492192195E-002  6.647897508749306E-002  6.812100577215381E-002  6.980359461472659E-002 
 7.152774340170874E-002  7.329447866373270E-002  7.510485228672455E-002  7.695994213820767E-002 
 7.886085270902220E-002  8.080871577093367E-002  8.280469105047741E-002  8.484996691942409E-002 
 8.694576110233246E-002  8.909332140156039E-002  9.129392644018028E-002  9.354888642325078E-002 
 9.585954391790548E-002  9.822727465267858E-002  1.006534883365994E-001  1.031396294985142E-001 
 1.056871783471262E-001  1.082976516522998E-001  1.109726036481130E-001  1.137136269582200E-001 
 1.165223535440900E-001  1.194004556766273E-001  1.223496469318409E-001  1.253716832110568E-001 
 1.284683637863709E-001  1.316415323718937E-001  1.348930782214796E-001  1.382249372535494E-001 
 1.416390932037117E-001  1.451375788058442E-001  1.487224770023478E-001  1.523959221843069E-001 
 1.561601014622586E-001  1.600172559683767E-001  1.639696821907951E-001  1.680197333409088E-001 
 1.721698207544276E-001  1.764224153270631E-001  1.807800489856417E-001  1.852453161955856E-001 
 1.898208755056165E-001  1.945094511306071E-001  1.993138345735328E-001  2.042368862874986E-001 
 2.092815373788001E-001  2.144507913520549E-001  2.197477258984507E-001  2.251754947281446E-001 
 2.307373294479279E-001  2.364365414852933E-001  2.422765240599799E-001  2.482607542042621E-001 
 2.543927948331166E-001  2.606762968654894E-001  2.671150013980705E-001  2.737127419326047E-001 
 2.804734466583312E-001  2.874011407907855E-001  2.944999489683318E-001  3.017740977078410E-001 
 3.092279179212218E-001  3.168658474938787E-001  3.246924339269758E-001  3.327123370449702E-001 
 3.409303317699766E-001  3.493513109646960E-001  3.579802883455180E-001  3.668224014676517E-001 
 3.758829147839200E-001  3.851672227790717E-001  3.946808531817088E-001  4.044294702553194E-001 
 4.144188781706103E-001  4.246550244614337E-001  4.351440035656254E-001  4.458920604537076E-001 
 4.569055943468945E-001  4.681911625272812E-001  4.797554842417036E-001  4.916054447024658E-001 
 5.037480991866183E-001  5.161906772365216E-001  5.289405869642774E-001  5.420054194622784E-001 
 5.553929533229930E-001  5.691111592700889E-001  5.831682049040648E-001  5.975724595651720E-001 
 6.123324993164324E-001  6.274571120495590E-001  6.429553027171945E-001  6.588362986942982E-001 
 6.751095552720490E-001  6.917847612872653E-001  7.088718448910510E-001  7.263809794598626E-001 
 7.443225896525376E-001  7.627073576169422E-001  7.815462293500950E-001  8.008504212150346E-001 
 8.206314266190448E-001  8.409010228565297E-001  8.616712781211011E-001  8.829545586906873E-001 
 9.047635362903449E-001  9.271111956367041E-001  9.500108421689504E-001  9.734761099705168E-001 
 9.975209698867792E-001  1.022159737842978E+000  1.047407083367709E+000  1.073278038326887E+000 
 1.099788005873575E+000  1.126952769618634E+000  1.154788503028215E+000  1.183311779053032E+000 
 1.212539579995623E+000  1.242489307621521E+000  1.273178793519782E+000  1.304626309719723E+000 
 1.336850579569781E+000  1.369870788885159E+000  1.403706597370637E+000  1.438378150325683E+000 
 1.473906090638733E+000  1.510311571077507E+000  1.547616266883114E+000  1.585842388675121E+000 
 1.625012695675395E+000  1.665150509258576E+000  1.706279726837273E+000  1.748424836090154E+000 
 1.791610929541577E+000  1.835863719501262E+000  1.881209553372940E+000
    </PP_RAB>
  </PP_MESH>
  <PP_LOCAL type="real" size="519" columns="4">
-9.905344254633800E+000 -9.905344316211600E+000 -9.905344376278800E+000 -9.905344434870800E+000 
-9.905344492021401E+000 -9.905344547764200E+000 -9.905344602131599E+000 -9.905344655155000E+000 
-9.905344706865201E+000 -9.905344757291999E+000 -9.905344806464800E+000 -9.905344854411400E+000 
-9.905344901159800E+000 -9.905344946736401E+000 -9.905344991167400E+000 -9.905345034478000E+000 
-9.905345076692800E+000 -9.905345117835600E+000 -9.905345157929400E+000 -9.905345196996601E+000 
-9.905345235059000E+000 -9.905345272137801E+000 -9.905345308253199E+000 -9.905345343424999E+000 
-9.905345377672401E+000 -9.905345411013601E+000 -9.905345443466601E+000 -9.905345475048399E+000 
-9.905345505775800E+000 -9.905345535664599E+000 -9.905345564729799E+000 -9.905345592986601E+000 
-9.905345620448800E+000 -9.905345647129799E+000 -9.905345673042600E+000 -9.905345698199200E+000 
-9.905345722611600E+000 -9.905345746290600E+000 -9.905345769246599E+000 -9.905345791489401E+000 
-9.905345813027999E+000 -9.905345833871200E+000 -9.905345854027001E+000 -9.905345873502201E+000 
-9.905345892303799E+000 -9.905345910437600E+000 -9.905345927908799E+000 -9.905345944722200E+000 
-9.905345960881800E+000 -9.905345976390800E+000 -9.905345991251600E+000 -9.905346005466001E+000 
-9.905346019035200E+000 -9.905346031959400E+000 -9.905346044238000E+000 -9.905346055869799E+000 
-9.905346066852800E+000 -9.905346077183800E+000 -9.905346086859000E+000 -9.905346095873799E+000 
-9.905346104222200E+000 -9.905346111897600E+000 -9.905346118892600E+000 -9.905346125197999E+000 
-9.905346130804400E+000 -9.905346135700601E+000 -9.905346139874601E+000 -9.905346143313199E+000 
-9.905346146001600E+000 -9.905346147924000E+000 -9.905346149063000E+000 -9.905346149400000E+000 
-9.905346148914600E+000 -9.905346147585000E+000 -9.905346145388000E+000 -9.905346142298001E+000 
-9.905346138288200E+000 -9.905346133329600E+000 -9.905346127391200E+000 -9.905346120440200E+000 
-9.905346112441199E+000 -9.905346103356800E+000 -9.905346093146800E+000 -9.905346081768799E+000 
-9.905346069177400E+000 -9.905346055324401E+000 -9.905346040158999E+000 -9.905346023626400E+000 
-9.905346005668999E+000 -9.905345986225800E+000 -9.905345965231600E+000 -9.905345942617400E+000 
-9.905345918309999E+000 -9.905345892231800E+000 -9.905345864300200E+000 -9.905345834428200E+000 
-9.905345802522801E+000 -9.905345768485599E+000 -9.905345732212600E+000 -9.905345693592800E+000 