<UPF version="2.0.1">
  <PP_INFO>
    Generated using FHI98PP, converted with fhi2upf.x v.5.0.1
    Author: Abinit web site
    Generation date: 10-Jul-2012, PG
    Pseudopotential type: SL
    Element: Mt
    Functional: SLA-PW

    Suggested minimum cutoff for wavefunctions:   0. Ry
    Suggested minimum cutoff for charge density:   0. Ry
    The Pseudo was generated with a Non-Relativistic Calculation
    L component and cutoff radius for Local Potential:  0   0.0000

    Valence configuration: 
    nl pn  l   occ       Rcut    Rcut US       E pseu
    7s  7  0  2.00      0.000      0.000     0.000000
    7p  7  1  0.00      0.000      0.000     0.000000
    6d  6  2  7.00      0.000      0.000     0.000000
    5f  5  3 14.00      0.000      0.000     0.000000

    Generation configuration: not available.
    Comment:
    meitnerium, fhi98PP : Trouiller-Martins-type, LDA Ceperley/Alder Perdew/Wang (19
  </PP_INFO>
  <!--                               -->
  <!-- END OF HUMAN READABLE SECTION -->
  <!--                               -->
  <PP_HEADER generated="Generated using FHI98PP, converted with fhi2upf.x v.5.0.1"
             author="Abinit web site"
             date="10-Jul-2012, PG"
             comment="meitnerium, fhi98PP : Trouiller-Martins-type, LDA Ceperley/Alder Perdew/Wang (19"
             element="Mt"
             pseudo_type="SL"
             relativistic="no"
             is_ultrasoft="F"
             is_paw="F"
             is_coulomb="F"
             has_so="F"
             has_wfc="F"
             has_gipaw="F"
             paw_as_gipaw="F"
             core_correction="T"
             functional="SLA-PW"
             z_valence="2.300000000000000E+001"
             total_psenergy="0.000000000000000E+000"
             wfc_cutoff="0.000000000000000E+000"
             rho_cutoff="0.000000000000000E+000"
             l_max="3"
             l_max_rho="0"
             l_local="0"
             mesh_size="579"
             number_of_wfc="4"
             number_of_proj="3"/>
  <PP_MESH dx="2.439988682353512E-002" mesh="579" xmin="-5.075173815233834E+000" rmax="7.644816171803600E+001"
zmesh="1.090000000000000E+002">
    <PP_R type="real" size="579" columns="4">
 5.733944954128400E-005  5.875573394495400E-005  6.020700057339400E-005  6.169411348755699E-005 
 6.321795809070000E-005  6.477944165554000E-005  6.637949386443200E-005  6.801906736288400E-005 
 6.969913832674700E-005  7.142070704341700E-005  7.318479850738999E-005  7.499246303052199E-005 
 7.684477686737600E-005  7.874284285600000E-005  8.068779107454400E-005  8.268077951408500E-005 
 8.472299476808300E-005  8.681565273885400E-005  8.895999936150401E-005  9.115731134573300E-005 
 9.340889693597300E-005  9.571609669029100E-005  9.808028427854200E-005  1.005028673002200E-004 
 1.029852881225400E-004  1.055290247391600E-004  1.081355916502200E-004  1.108065407639800E-004 
 1.135434623208500E-004  1.163479858401800E-004  1.192217810904300E-004  1.221665590833600E-004 
 1.251840730927200E-004  1.282761196981100E-004  1.314445398546600E-004  1.346912199890700E-004 
 1.380180931228000E-004  1.414271400229300E-004  1.449203903814900E-004  1.484999240239200E-004 
 1.521678721473100E-004  1.559264185893500E-004  1.597778011285000E-004  1.637243128163800E-004 
 1.677683033429400E-004  1.719121804355100E-004  1.761584112922700E-004  1.805095240511900E-004 
 1.849681092952500E-004  1.895368215948500E-004  1.942183810882400E-004  1.990155751011200E-004 
 2.039312598061200E-004  2.089683619233300E-004  2.141298804628300E-004  2.194188885102700E-004 
 2.248385350564700E-004  2.303920468723600E-004  2.360827304301100E-004  2.419139738717300E-004 
 2.478892490263700E-004  2.540121134773200E-004  2.602862126802100E-004  2.667152821334100E-004 
 2.733031496021000E-004  2.800537373972800E-004  2.869710647109900E-004  2.940592500093500E-004 
 3.013225134845800E-004  3.087651795676500E-004  3.163916795029700E-004  3.242065539866900E-004 
 3.322144558701700E-004  3.404201529301600E-004  3.488285307075300E-004  3.574445954160100E-004 
 3.662734769227900E-004  3.753204318027800E-004  3.845908464683100E-004  3.940902403760700E-004 
 4.038242693133600E-004  4.137987287654000E-004  4.240195573659100E-004  4.344928404328500E-004 
 4.452248135915400E-004  4.562218664872500E-004  4.674905465894800E-004  4.790375630902400E-004 
 4.908697908985699E-004  5.029942747337700E-004  5.154182333196900E-004  5.281490636826900E-004 
 5.411943455556500E-004  5.545618458908700E-004  5.682595234843800E-004  5.822955337144400E-004 
 5.966782333971900E-004  6.114161857621000E-004  6.265181655504200E-004  6.419931642395200E-004 
 6.578503953962400E-004  6.740993001625200E-004  6.907495528765400E-004  7.078110668325899E-004 
 7.252940001833500E-004  7.432087619878800E-004  7.615660184089800E-004  7.803766990636800E-004 
 7.996520035305600E-004  8.194034080177600E-004  8.396426721958000E-004  8.603818461990400E-004 
 8.816332778001500E-004  9.034096197618200E-004  9.257238373699299E-004  9.485892161529700E-004 
 9.720193697919500E-004  9.960282482258101E-004  1.020630145957000E-003  1.045839710562100E-003 
 1.071671951413000E-003  1.098142248612900E-003  1.125266362153600E-003  1.153060441298800E-003 
 1.181541034198900E-003  1.210725097743600E-003  1.240630007657900E-003  1.271273568847100E-003 
 1.302674025997600E-003  1.334850074439700E-003  1.367820871278400E-003  1.401606046799000E-003 
 1.436225716154900E-003  1.471700491343900E-003  1.508051493480100E-003  1.545300365369100E-003 
 1.583469284393700E-003  1.622580975718200E-003  1.662658725818400E-003  1.703726396346200E-003 
 1.745808438335900E-003  1.788929906762800E-003  1.833116475459900E-003  1.878394452403700E-003 
 1.924790795378100E-003  1.972333128023900E-003  2.021049756286100E-003  2.070969685266400E-003 
 2.122122636492500E-003  2.174539065613800E-003  2.228250180534500E-003  2.283287959993700E-003 
 2.339685172605500E-003  2.397475396368900E-003  2.456693038659200E-003  2.517373356714100E-003 
 2.579552478624900E-003  2.643267424846900E-003  2.708556130240700E-003  2.775457466657600E-003 
 2.844011266084100E-003  2.914258344356300E-003  2.986240525461900E-003  3.060000666440800E-003 
 3.135582682901900E-003  3.213031575169600E-003  3.292393455076300E-003  3.373715573416700E-003 
 3.457046348080100E-003  3.542435392877700E-003  3.629933547081700E-003  3.719592905694600E-003 
 3.811466850465300E-003  3.905610081671800E-003  4.002078650689100E-003  4.100929993361100E-003 
 4.202222964197100E-003  4.306017871412800E-003  4.412376512836700E-003  4.521362212703800E-003 
 4.633039859357500E-003  4.747475943883700E-003  4.864738599697600E-003  4.984897643110100E-003 
 5.108024614895000E-003  5.234192822882900E-003  5.363477385608100E-003  5.495955277032600E-003 
 5.631705372375300E-003  5.770808495073000E-003  5.913347464901300E-003  6.059407147284300E-003 
 6.209074503822200E-003  6.362438644066700E-003  6.519590878575100E-003  6.680624773275900E-003 
 6.845636205175800E-003  7.014723419443700E-003  7.187987087903900E-003  7.365530368975100E-003 
 7.547458969088800E-003  7.733881205625300E-003  7.924908071404300E-003  8.120653300767999E-003 
 8.321233437296899E-003  8.526767903198200E-003  8.737379070407199E-003  8.953192333446200E-003 
 9.174336184082300E-003  9.400942287829200E-003  9.633145562338500E-003  9.871084257728299E-003 
 1.011490003889400E-002  1.036473806985500E-002  1.062074710018000E-002  1.088307955355500E-002 
 1.115189161852800E-002  1.142734334150500E-002  1.170959872204000E-002  1.199882581047500E-002 
 1.229519680799300E-002  1.259888816915100E-002  1.291008070692900E-002  1.322895970039000E-002 
 1.355571500499000E-002  1.389054116561300E-002  1.423363753240400E-002  1.458520837945400E-002 
 1.494546302642600E-002  1.531461596317900E-002  1.569288697747000E-002  1.608050128581300E-002 
 1.647768966757300E-002  1.688468860236200E-002  1.730174041084000E-002  1.772909339898800E-002 
 1.816700200594300E-002  1.861572695549000E-002  1.907553541129000E-002  1.954670113594900E-002 
 2.002950465400700E-002  2.052423341896100E-002  2.103118198440900E-002  2.155065217942400E-002 
 2.208295328825600E-002  2.262840223447600E-002  2.318732376966800E-002  2.376005066677800E-002 
 2.434692391824800E-002  2.494829293902900E-002  2.556451577462300E-002  2.619595931425600E-002 
 2.684299950931800E-002  2.750602159719800E-002  2.818542033064900E-002  2.888160021281600E-002 
 2.959497573807200E-002  3.032597163880300E-002  3.107502313828100E-002  3.184257620979700E-002 
 3.262908784217900E-002  3.343502631188100E-002  3.426087146178400E-002  3.510711498689000E-002 
 3.597426072706600E-002  3.686282496702500E-002  3.777333674371000E-002  3.870633816128000E-002 
 3.966238471386400E-002  4.064204561629600E-002  4.164590414301900E-002  4.267455797535100E-002 
 4.372861955734200E-002  4.480871646040900E-002  4.591549175698100E-002  4.704960440337800E-002 
 4.821172963214200E-002  4.940255935405500E-002  5.062280257010100E-002  5.187318579358200E-002 
 5.315445348268400E-002  5.446736848370600E-002  5.581271248525300E-002  5.719128648363900E-002 
 5.860391125978500E-002  6.005142786790200E-002  6.153469813623900E-002  6.305460518020400E-002 
 6.461205392815500E-002  6.620797166018000E-002  6.784330856018700E-002  6.951903828162299E-002 
 7.123615852718000E-002  7.299569164280099E-002  7.479868522637800E-002  7.664621275147000E-002 
 7.853937420643101E-002  8.047929674933001E-002  8.246713537903801E-002  8.450407362289999E-002 
 8.659132424138601E-002  8.873012995014801E-002  9.092176415991700E-002  9.316753173466701E-002 
 9.546876976851300E-002  9.782684838179501E-002  1.002431715368300E-001  1.027191778737900E-001 
 1.052563415672700E-001  1.078561732039800E-001  1.105202206821200E-001  1.132500701329700E-001 
 1.160473468652500E-001  1.189137163328200E-001  1.218508851262400E-001  1.248606019888600E-001 
 1.279446588579900E-001  1.311048919317800E-001  1.343431827624900E-001  1.376614593767300E-001 
 1.410616974233300E-001  1.445459213496900E-001  1.481162056070200E-001  1.517746758855200E-001 
 1.555235103798900E-001  1.593649410862700E-001  1.633012551311000E-001  1.673347961328400E-001 
 1.714679655973200E-001  1.757032243475800E-001  1.800430939889600E-001  1.844901584104900E-001 
 1.890470653232300E-001  1.937165278367100E-001  1.985013260742800E-001  2.034043088283200E-001 
 2.084283952563700E-001  2.135765766192100E-001  2.188519180617000E-001  2.242575604378300E-001 
 2.297967221806400E-001  2.354727012185000E-001  2.412888769386000E-001  2.472487121989800E-001 
 2.533557553903000E-001  2.596136425484400E-001  2.660260995193800E-001  2.725969441775100E-001 
 2.793300886987000E-001  2.862295418895500E-001  2.932994115742300E-001  3.005439070401100E-001 
 3.079673415440000E-001  3.155741348801400E-001  3.233688160116800E-001  3.313560257671700E-001 
 3.395405196036100E-001  3.479271704378200E-001  3.565209715476400E-001  3.653270395448600E-001 
 3.743506174216200E-001  3.835970776719400E-001  3.930719254904300E-001  4.027808020500500E-001 
 4.127294878606800E-001  4.229239062108400E-001  4.333701266942500E-001  4.440743688236000E-001 
 4.550430057335400E-001  4.662825679751600E-001  4.777997474041500E-001  4.896014011650300E-001 
 5.016945557738000E-001  5.140864113014200E-001  5.267843456605600E-001  5.397959189983800E-001 
 5.531288781976400E-001  5.667911614891200E-001  5.807909031779001E-001  5.951364384863900E-001 
 6.098363085170100E-001  6.248992653373800E-001  6.403342771912101E-001  6.561505338378300E-001 
 6.723574520236300E-001  6.889646810886100E-001  7.059821087115000E-001  7.234198667966800E-001 
 7.412883375065500E-001  7.595981594429700E-001  7.783602339812100E-001  7.975857317605400E-001 
 8.172860993350300E-001  8.374730659886001E-001  8.581586507185200E-001  8.793551693912700E-001 
 9.010752420752300E-001  9.233318005544900E-001  9.461380960281900E-001  9.695077070000800E-001 
 9.934545473629800E-001  1.017992874682900E+000  1.043137298687500E+000  1.068902789965100E+000 
 1.095304688877200E+000  1.122358714692500E+000  1.150080974945400E+000  1.178487975026600E+000 
 1.207596628009700E+000  1.237424264721600E+000  1.267988644060200E+000  1.299307963568500E+000 
 1.331400870268600E+000  1.364286471764200E+000  1.397984347616800E+000  1.432514561003000E+000 
 1.467897670659700E+000  1.504154743125000E+000  1.541307365280200E+000  1.579377657202600E+000 
 1.618388285335500E+000  1.658362475983300E+000  1.699324029140100E+000  1.741297332659900E+000 
 1.784307376776600E+000  1.828379768983000E+000  1.873540749276800E+000  1.919817205784000E+000 
 1.967236690766800E+000  2.015827437028800E+000  2.065618374723400E+000  2.116639148579000E+000 
 2.168920135549000E+000  2.222492462897000E+000  2.277388026730600E+000  2.333639510990800E+000 
 2.391280406912300E+000  2.450345032963000E+000  2.510868555277200E+000  2.572887008592600E+000 
 2.636437317704800E+000  2.701557319452100E+000  2.768285785242600E+000  2.836662444138100E+000 
 2.906728006508300E+000  2.978524188269000E+000  3.052093735719300E+000  3.127480450991500E+000 
 3.204729218131000E+000  3.283886029818900E+000  3.364998014755400E+000  3.448113465719800E+000 
 3.533281868323100E+000  3.620553930470700E+000  3.709981612553300E+000  3.801618158383400E+000 
 3.895518126895500E+000  3.991737424629800E+000  4.090333339018100E+000  4.191364572491900E+000 
 4.294891277432400E+000  4.400975091985000E+000  4.509679176757000E+000  4.621068252422900E+000 
 4.735208638257800E+000  4.852168291622800E+000  4.972016848425800E+000  5.094825664582000E+000 
 5.220667858497100E+000  5.349618354602000E+000  5.481753927960700E+000  5.617153249981300E+000 
 5.755896935255800E+000  5.898067589556700E+000  6.043749859018700E+000  6.193030480536500E+000 
 6.345998333405700E+000  6.502744492240800E+000  6.663362281199200E+000  6.827947329544800E+000 
 6.996597628584600E+000  7.169413590010600E+000  7.346498105683900E+000  7.527956608894300E+000 
 7.713897137133900E+000  7.904430396421200E+000  8.099669827212800E+000  8.299731671944899E+000 
 8.504735044241899E+000  8.714801999834700E+000  8.930057609230600E+000  9.150630032178601E+000 
 9.376650593973400E+000  9.608253863644601E+000  9.845577734076601E+000  1.008876350410800E+001 
 1.033795596266000E+001  1.059330347493700E+001  1.085495807076800E+001  1.112307553511600E+001 
 1.139781550083400E+001  1.167934154370400E+001  1.196782127983400E+001  1.226342646544600E+001 
 1.256633309914200E+001  1.287672152669100E+001  1.319477654840000E+001  1.352068752914600E+001 
 1.385464851111600E+001  1.419685832934000E+001  1.454752073007500E+001  1.490684449210800E+001 
 1.527504355106300E+001  1.565233712677400E+001  1.603894985380600E+001  1.643511191519500E+001 
 1.684105917950000E+001  1.725703334123300E+001  1.768328206476200E+001  1.812005913176200E+001 
 1.856762459231600E+001  1.902624491974600E+001  1.949619316926400E+001  1.997774914054500E+001 
 2.047119954431600E+001  2.097683817306100E+001  2.149496607593500E+001  2.202589173801100E+001 
 2.256993126394000E+001  2.312740856615900E+001  2.369865555774300E+001  2.428401235002000E+001 
 2.488382745506500E+001  2.549845799320500E+001  2.612826990563700E+001  2.677363817230700E+001 
 2.743494703516300E+001  2.811259022693100E+001  2.880697120553600E+001  2.951850339431300E+001 
 3.024761042815300E+001  3.099472640572800E+001  3.176029614794900E+001  3.254477546280400E+001 
 3.334863141673500E+001  3.417234261272800E+001  3.501639947526300E+001  3.588130454230200E+001 
 3.676757276449700E+001  3.767573181178000E+001  3.860632238753100E+001  3.955989855050300E+001 
 4.053702804470000E+001  4.153829263740400E+001  4.256428846554800E+001  4.361562639064700E+001 
 4.469293236249600E+001  4.579684779185000E+001  4.692802993230800E+001  4.808715227163600E+001 
 4.927490493274600E+001  5.049199508458500E+001  5.173914736317400E+001  5.301710430304400E+001 
 5.432662677932900E+001  5.566849446077900E+001  5.704350627396000E+001  5.845248087892700E+001 
 5.989625715663600E+001  6.137569470840500E+001  6.289167436770300E+001  6.444509872458499E+001 
 6.603689266308299E+001  6.766800391186101E+001  6.933940360848401E+001  7.105208687761299E+001 
 7.280707342349000E+001  7.460540813705001E+001  7.644816171803600E+001
    </PP_R>
    <PP_RAB type="real" size="579" columns="4">
 1.399076079331133E-006  1.433633258490618E-006  1.469043999975328E-006  1.505329386774722E-006 
 1.542511022628066E-006  1.580611044886973E-006  1.619652137695685E-006  1.659657545496781E-006 
 1.700651086870546E-006  1.742657168716232E-006  1.785700800783538E-006  1.829807610562878E-006 
 1.875003858543784E-006  1.921316453849811E-006  1.968772970259921E-006  2.017401662625335E-006 
 2.067231483692183E-006  2.118292101339365E-006  2.170613916242454E-006  2.224228079973640E-006 
 2.279166513548998E-006  2.335461926433645E-006  2.393147836016576E-006  2.452258587566137E-006 
 2.512829374679132E-006  2.574896260233542E-006  2.638496197861377E-006  2.703667053948543E-006 
 2.770447630181064E-006  2.838877686646659E-006  2.908997965506771E-006  2.980850215254701E-006 
 3.054477215571516E-006  3.129922802796128E-006  3.207231896025356E-006  3.286450523857180E-006 
 3.367625851796451E-006  3.450806210335746E-006  3.536041123730884E-006  3.623381339487212E-006 
 3.712878858572526E-006  3.804586966379303E-006  3.898560264448702E-006  3.994854702980733E-006 
 4.093527614144245E-006  4.194637746213592E-006  4.298245298545140E-006  4.404411957419227E-006 
 4.513200932767374E-006  4.624676995806908E-006  4.738906517603270E-006  4.855957508588082E-006 
 4.975899659050265E-006  5.098804380628778E-006  5.224744848830156E-006  5.353796046596459E-006 
 5.486034808947301E-006  5.621539868728183E-006  5.760391903485835E-006  5.902673583501844E-006 
 6.048469621014541E-006  6.197866820653569E-006  6.350954131123716E-006  6.507822698162443E-006 
 6.668565918806928E-006  6.833279497001658E-006  7.002061500577530E-006  7.175012419641760E-006 
 7.352235226406888E-006  7.533835436499159E-006  7.719921171780665E-006  7.910603224723565E-006 
 8.105995124374452E-006  8.306213203946422E-006  8.511376670083777E-006  8.721607673834946E-006 
 8.937031383378780E-006  9.157776058548164E-006  9.383973127194336E-006  9.615757263435859E-006 
 9.853266467842751E-006  1.009664214959847E-005  1.034602921069366E-005  1.060157613219784E-005 
 1.086343506266310E-005  1.113176190871085E-005  1.140671642785589E-005  1.168846232362392E-005 
 1.197716734301746E-005  1.227300337639012E-005  1.257614655978685E-005  1.288677737981368E-005 
 1.320508078109502E-005  1.353124627638795E-005  1.386546805941487E-005  1.420794512048232E-005 
 1.455888136495831E-005  1.491848573467276E-005  1.528697233231909E-005  1.566456054892748E-005 
 1.605147519448609E-005  1.644794663178972E-005  1.685421091359506E-005  1.727050992316085E-005 
 1.769709151826280E-005  1.813420967876392E-005  1.858212465782938E-005  1.904110313687772E-005 
 1.951141838435877E-005  1.999335041845231E-005  2.048718617378812E-005  2.099321967228078E-005 
 2.151175219818596E-005  2.204309247748131E-005  2.258755686167492E-005  2.314546951615836E-005 
 2.371716261320751E-005  2.430297652975371E-005  2.490326005003893E-005  2.551837057327397E-005 
 2.614867432643423E-005  2.679454658229713E-005  2.745637188287893E-005  2.813454426838618E-005 
 2.882946751181580E-005  2.954155535935734E-005  3.027123177673427E-005  3.101893120162082E-005 
 3.178509880230029E-005  3.257019074271611E-005  3.337467445406216E-005  3.419902891307807E-005 
 3.504374492723024E-005  3.590932542693219E-005  3.679628576497755E-005  3.770515402337352E-005 
 3.863647132775043E-005  3.959079216954527E-005  4.056868473613207E-005  4.157073124911662E-005 
 4.259752831096855E-005  4.364968726024955E-005  4.472783453557916E-005  4.583261204860651E-005 
 4.696467756620778E-005  4.812470510209216E-005  4.931338531811409E-005  5.053142593547230E-005 
 5.177955215607896E-005  5.305850709433253E-005  5.436905221956350E-005  5.571196780938667E-005 
 5.708805341427744E-005  5.849812833361116E-005  5.994303210345107E-005  6.142362499640674E-005 
 6.294078853381705E-005  6.449542601060150E-005  6.608846303306534E-005  6.772084806998094E-005 
 6.939355301731088E-005  7.110757377683656E-005  7.286393084912441E-005  7.466366994109757E-005 
 7.650786258864297E-005  7.839760679458302E-005  8.033402768240947E-005  8.231827816616537E-005 
 8.435153963686984E-005  8.643502266590105E-005  8.856996772574688E-005  9.075764592857239E-005 
 9.299935978300918E-005  9.529644396964968E-005  9.765026613570019E-005  1.000622277092515E-004 
 1.025337647336695E-004  1.050663487225919E-004  1.076614875360400E-004  1.103207262781811E-004 
 1.130456482172501E-004  1.158378757282178E-004  1.186990712587042E-004  1.216309383187934E-004 
 1.246352224952696E-004  1.277137124909026E-004  1.308682411894277E-004  1.341006867468060E-004 
 1.374129737094520E-004  1.408070741600762E-004  1.442850088918301E-004  1.478488486114567E-004 
 1.515007151721592E-004  1.552427828369137E-004  1.590772795729843E-004  1.630064883784369E-004 
 1.670327486413840E-004  1.711584575328276E-004  1.753860714338870E-004  1.797181073983033E-004 
 1.841571446510418E-004  1.887058261239227E-004  1.933668600291849E-004  1.981430214719061E-004 
 2.030371541022605E-004  2.080521718085879E-004  2.131910604522602E-004  2.184568796454296E-004 
 2.238527645726712E-004  2.293819278576178E-004  2.350476614756990E-004  2.408533387141497E-004 
 2.468024161803846E-004  2.528984358600479E-004  2.591450272257808E-004  2.655459093982712E-004 
 2.721048933604131E-004  2.788258842263996E-004  2.857128835667875E-004  2.927699917909021E-004 
 3.000014105881195E-004  3.074114454296600E-004  3.150045081317719E-004  3.227851194826231E-004 
 3.307579119338528E-004  3.389276323586128E-004  3.472991448778793E-004  3.558774337563537E-004 
 3.646676063701231E-004  3.736748962474719E-004  3.829046661847962E-004  3.923624114395482E-004 
 4.020537630021152E-004  4.119844909482662E-004  4.221605078746801E-004  4.325878724191908E-004 
 4.432727928679447E-004  4.542216308517880E-004  4.654409051338125E-004  4.769372954906210E-004 
 4.887176466892408E-004  5.007889725624657E-004  5.131584601847504E-004  5.258334741513160E-004 
 5.388215609628592E-004  5.521304535186436E-004  5.657680757205649E-004  5.797425471908434E-004 
 5.940621881064715E-004  6.087355241527080E-004  6.237712915992795E-004  6.391784425017771E-004 
 6.549661500315680E-004  6.711438139373440E-004  6.877210661416015E-004  7.047077764752983E-004 
 7.221140585542246E-004  7.399502758005291E-004  7.582270476127916E-004  7.769552556888387E-004 
 7.961460505043535E-004  8.158108579518153E-004  8.359613861432138E-004  8.566096323809497E-004 
 8.777678903007547E-004  8.994487571911947E-004  9.216651414938047E-004  9.444302704887105E-004 
 9.677576981697909E-004  9.916613133145742E-004  1.016155347753456E-003  1.041254384842953E-003 
 1.066973368148569E-003  1.093327610341855E-003  1.120332802317296E-003  1.148005022534523E-003 
 1.176360746591139E-003  1.205416857031918E-003  1.235190653400627E-003  1.265699862539611E-003 
 1.296962649144352E-003  1.328997626578210E-003  1.361823867954679E-003  1.395460917493165E-003 
 1.429928802155250E-003  1.465248043568492E-003  1.501439670244629E-003  1.538525230099669E-003 
 1.576526803283130E-003  1.615467015324213E-003  1.655369050602734E-003  1.696256666152607E-003 
 1.738154205806598E-003  1.781086614690013E-003  1.825079454072852E-003  1.870158916588462E-003 
 1.916351841828190E-003  1.963685732321350E-003  2.012188769909677E-003  2.061889832526439E-003 
 2.112818511389852E-003  2.165005128621176E-003  2.218480755298127E-003  2.273277229953992E-003 
 2.329427177533849E-003  2.386964028818928E-003  2.445922040330869E-003  2.506336314727049E-003 
 2.568242821700743E-003  2.631678419396713E-003  2.696680876355854E-003  2.763288894001883E-003 
 2.831542129683623E-003  2.901481220286768E-003  2.973147806427835E-003  3.046584557246648E-003 
 3.121835195810766E-003  3.198944525147235E-003  3.277958454918250E-003  3.358924028754890E-003 
 3.441889452265008E-003  3.526904121736045E-003  3.614018653542746E-003  3.703284914285413E-003 
 3.794756051668206E-003  3.888486526144330E-003  3.984532143340074E-003  4.082950087280619E-003 
 4.183798954436422E-003  4.287138788611153E-003  4.393031116689721E-003  4.501538985272022E-003 
 4.612726998208264E-003  4.726661355063915E-003  4.843409890534073E-003  4.963042114830393E-003 
 5.085629255066473E-003  5.211244297666801E-003  5.339962031819062E-003  5.471859094005139E-003 
 5.607014013626959E-003  5.745507259763501E-003  5.887421289079734E-003  6.032840594919920E-003 
 6.181851757614568E-003  6.334543496027638E-003  6.491006720379363E-003  6.651334586372766E-003 
 6.815622550656307E-003  6.983968427657325E-003  7.156472447820660E-003  7.333237317281745E-003 
 7.514368279018586E-003  7.699973175510424E-003  7.890162512945543E-003  8.085049527015335E-003 
 8.284750250332392E-003  8.489383581515624E-003  8.699071355979202E-003  8.913938418471724E-003 
 9.134112697408023E-003  9.359725281034148E-003  9.590910495475523E-003  9.827805984713923E-003 
 1.007055279253620E-002  1.031929544651188E-002  1.057418204404078E-002  1.083536434052863E-002 
 1.110299783973962E-002  1.137724188638123E-002  1.165825976097493E-002  1.194621877707095E-002 
 1.224129038086445E-002  1.254365025327197E-002  1.285347841452767E-002  1.317095933136660E-002 
 1.349628202685136E-002  1.382964019291455E-002  1.417123230567951E-002  1.452126174362969E-002 
 1.487993690869749E-002  1.524747135034232E-002  1.562408389269569E-002  1.600999876484520E-002 
 1.640544573433702E-002  1.681066024397505E-002  1.722588355200127E-002  1.765136287573585E-002 
 1.808735153876632E-002  1.853410912177406E-002  1.899190161708184E-002  1.946100158702362E-002 
 1.994168832622321E-002  2.043424802788080E-002  2.093897395416950E-002  2.145616661083754E-002 
 2.198613392612513E-002  2.252919143410046E-002  2.308566246252284E-002  2.365587832534700E-002 
 2.424017851998302E-002  2.483891092942793E-002  2.545243202938315E-002  2.608110710050937E-002 
 2.672531044589103E-002  2.738542561390534E-002  2.806184562656869E-002  2.875497321354612E-002 
 2.946522105191932E-002  3.019301201190321E-002  3.093877940859664E-002  3.170296725998930E-002 
 3.248603055131000E-002  3.328843550592653E-002  3.411065986292350E-002  3.495319316153930E-002 
 3.581653703262751E-002  3.670120549733354E-002  3.760772527311799E-002  3.853663608736349E-002 
 3.948849099872127E-002  4.046385672639000E-002  4.146331398753213E-002  4.248745784302514E-002 
 4.353689805174788E-002  4.461225943362649E-002  4.571418224163511E-002  4.684332254300504E-002 
 4.800035260981568E-002  4.918596131927960E-002  5.040085456386552E-002  5.164575567159134E-002 
 5.292140583668205E-002  5.422856456084663E-002  5.556801010550062E-002  5.694053995510537E-002 
 5.834697129199713E-002  5.978814148290863E-002  6.126490857753682E-002  6.277815181940327E-002 
 6.432877216934163E-002  6.591769284192416E-002  6.754585985512049E-002  6.921424259354216E-002 
 7.092383438560237E-002  7.267565309492542E-002  7.447074172637143E-002  7.631016904701118E-002 
 7.819503022247259E-002  8.012644746896924E-002  8.210557072145212E-002  8.413357831827056E-002 
 8.621167770273237E-002  8.834110614199032E-002  9.052313146369685E-002  9.275905281085098E-002 
 9.505020141527973E-002  9.739794139023668E-002  9.980367054257415E-002  1.022688212049770E-001 
 1.047948610887388E-001  1.073832941576311E-001  1.100356615233238E-001  1.127535423629500E-001 
 1.155385548593162E-001  1.183923571643421E-001  1.213166483862993E-001  1.243131696014429E-001 
 1.273837048905967E-001  1.305300824013950E-001  1.337541754367102E-001  1.370579035699962E-001 
 1.404432337881742E-001  1.439121816627441E-001  1.474668125498126E-001  1.511092428197939E-001 
 1.548416411174416E-001  1.586662296530419E-001  1.625852855254733E-001  1.666011420779520E-001 
 1.707161902872784E-001  1.749328801873733E-001  1.792537223280023E-001  1.836812892695042E-001 
 1.882182171144587E-001  1.928672070771881E-001  1.976310270919946E-001  2.025125134611655E-001 
 2.075145725436553E-001  2.126401824854842E-001  2.178923949928753E-001  2.232743371491994E-001 
 2.287892132767843E-001  2.344403068447223E-001  2.402309824237864E-001  2.461646876896468E-001 
 2.522449554755941E-001  2.584754058758241E-001  2.648597484009583E-001  2.714017841864628E-001 
 2.781054082558839E-001  2.849746118397896E-001  2.920134847522449E-001  2.992262178256277E-001 
 3.066171054059081E-001  3.141905479094388E-001  3.219510544427954E-001  3.299032454875451E-001 
 3.380518556510898E-001  3.464017364856579E-001  3.549578593768610E-001  3.637253185034731E-001 
 3.727093338705072E-001  3.819152544171025E-001  3.913485612012215E-001  4.010148706628916E-001 
 4.109199379682573E-001  4.210696604360574E-001  4.314700810488413E-001  4.421273920507569E-001 
 4.530479386343979E-001  4.642382227186624E-001  4.757049068198201E-001  4.874548180182741E-001 
 4.994949520233142E-001  5.118324773382996E-001  5.244747395285408E-001  5.374292655949057E-001 
 5.507037684551029E-001  5.643061515359363E-001  5.782445134788707E-001  5.925271529618171E-001 
 6.071625736399620E-001  6.221594892088665E-001  6.375268285923215E-001  6.532737412585705E-001 
 6.694096026676576E-001  6.859440198535359E-001  7.028868371439135E-001  7.202481420213745E-001 
 7.380382711293139E-001  7.562678164261987E-001  7.749476314919140E-001  7.940888379897804E-001 
 8.137028322881218E-001  8.338012922456297E-001  8.543961841641118E-001  8.754997699129654E-001 
 8.971246142298190E-001  9.192835922012937E-001  9.419898969286666E-001  9.652570473828043E-001 
 9.890988964531492E-001  1.013529639195540E+000  1.038563821283673E+000  1.064216347669378E+000 
 1.090502491456813E+000  1.117437902995804E+000  1.145038619199784E+000  1.173321073094018E+000 
 1.202302103599455E+000  1.231998965558366E+000  1.262429340007651E+000  1.293611344705830E+000 