<UPF version="2.0.1">
  <PP_INFO>
    Generated using "atomic" code by A. Dal Corso  (Quantum ESPRESSO distribution)
    Author: G. Mattioli
    Generation date: original 10Oct2008, re-generated on 21Dec2011 
    Pseudopotential type: USPP
    Element:  N
    Functional: PBE

    Suggested minimum cutoff for wavefunctions:  57. Ry
    Suggested minimum cutoff for charge density: 498. Ry
    The Pseudo was generated with a Scalar-Relativistic Calculation
    L component and cutoff radius for Local Potential:  2   1.3000

    Valence configuration: 
    nl pn  l   occ       Rcut    Rcut US       E pseu
    2S  1  0  2.00      1.300      1.600    -2.688217
    2P  2  1  3.00      1.300      1.600    -1.842744
    Generation configuration:
    2S  1  0  2.00      1.300      1.600    -2.688217
    2S  1  0  0.00      1.300      1.600     0.050000
    2P  2  1  3.00      1.300      1.600    -1.842742
    2P  2  1  0.00      1.300      1.600     0.050000
    3D  3  2 -2.00      1.300      1.300     0.150000

    Pseudization used: rrkj
  </PP_INFO>
  <!--                               -->
  <!-- END OF HUMAN READABLE SECTION -->
  <!--                               -->
  <PP_HEADER generated='Generated using "atomic" code by A. Dal Corso  (Quantum ESPRESSO distribution)'
             author="gm"
             date="21Dec2011"
             comment=""
             element=" N"
             pseudo_type="USPP"
             relativistic="scalar"
             is_ultrasoft="T"
             is_paw="F"
             is_coulomb="F"
             has_so="F"
             has_wfc="F"
             has_gipaw="F"
             paw_as_gipaw="F"
             core_correction="F"
             functional="PBE"
             z_valence="6.000000000000000E+000"
             total_psenergy="-2.950582518200039E+001"
             wfc_cutoff="5.662526807071896E+001"
             rho_cutoff="4.981148202025331E+002"
             l_max="2"
             l_max_rho="4"
             l_local="2"
             mesh_size="1085"
             number_of_wfc="2"
             number_of_proj="4"/>
  <PP_MESH dx="1.250000000000000E-002" mesh="1085" xmin="-7.000000000000000E+000" rmax="1.000000000000000E+002"
zmesh="7.000000000000000E+000">
    <PP_R type="real" size="1085" columns="4">
 1.302688522220738E-004  1.319074326670032E-004  1.335666239166546E-004  1.352466852230363E-004 
 1.369478790991457E-004  1.386704713599870E-004  1.404147311641055E-004  1.421809310556445E-004 
 1.439693470069301E-004  1.457802584615935E-004  1.476139483782339E-004  1.494707032746312E-004 
 1.513508132725157E-004  1.532545721428995E-004  1.551822773519797E-004  1.571342301076169E-004 
 1.591107354064004E-004  1.611121020813045E-004  1.631386428499439E-004  1.651906743634368E-004 
 1.672685172558820E-004  1.693724961944590E-004  1.715029399301573E-004  1.736601813491450E-004 
 1.758445575247830E-004  1.780564097702928E-004  1.802960836920878E-004  1.825639292437750E-004 
 1.848603007808354E-004  1.871855571159943E-004  1.895400615752845E-004  1.919241820548181E-004 
 1.943382910782706E-004  1.967827658550881E-004  1.992579883394284E-004  2.017643452898402E-004 
 2.043022283296964E-004  2.068720340083851E-004  2.094741638632719E-004  2.121090244824410E-004 
 2.147770275682246E-004  2.174785900015331E-004  2.202141339069929E-004  2.229840867189046E-004 
 2.257888812480310E-004  2.286289557492235E-004  2.315047539899009E-004  2.344167253193895E-004 
 2.373653247391334E-004  2.403510129737916E-004  2.433742565432248E-004  2.464355278353917E-004 
 2.495353051801600E-004  2.526740729240459E-004  2.558523215058957E-004  2.590705475335164E-004 
 2.623292538612725E-004  2.656289496686573E-004  2.689701505398539E-004  2.723533785442966E-004 
 2.757791623182442E-004  2.792480371473810E-004  2.827605450504567E-004  2.863172348639770E-004 
 2.899186623279620E-004  2.935653901727799E-004  2.972579882070757E-004  3.009970334068049E-004 
 3.047831100053869E-004  3.086168095849935E-004  3.124987311689836E-004  3.164294813155024E-004 
 3.204096742122576E-004  3.244399317724867E-004  3.285208837321336E-004  3.326531677482448E-004 
 3.368374294986046E-004  3.410743227826248E-004  3.453645096235004E-004  3.497086603716547E-004 
 3.541074538094797E-004  3.585615772573998E-004  3.630717266812655E-004  3.676386068010999E-004 
 3.722629312012140E-004  3.769454224417031E-004  3.816868121713500E-004  3.864878412419467E-004 
 3.913492598240526E-004  3.962718275242127E-004  4.012563135036447E-004  4.063034965984240E-004 
 4.114141654411776E-004  4.165891185843097E-004  4.218291646247781E-004  4.271351223304371E-004 
 4.325078207679735E-004  4.379480994324490E-004  4.434568083784728E-004  4.490348083530257E-004 
 4.546829709299524E-004  4.604021786461465E-004  4.661933251394497E-004  4.720573152882831E-004 
 4.779950653530388E-004  4.840075031192445E-004  4.900955680425334E-004  4.962602113954362E-004 
 5.025023964160183E-004  5.088230984583900E-004  5.152233051451044E-004  5.217040165214777E-004 
 5.282662452118475E-004  5.349110165777971E-004  5.416393688783725E-004  5.484523534323090E-004 
 5.553510347823043E-004  5.623364908613548E-004  5.694098131611843E-004  5.765721069027939E-004 
 5.838244912091524E-004  5.911680992800622E-004  5.986040785692258E-004  6.061335909635343E-004 
 6.137578129646199E-004  6.214779358726812E-004  6.292951659726293E-004  6.372107247225717E-004 
 6.452258489446667E-004  6.533417910183820E-004  6.615598190761780E-004  6.698812172016586E-004 
 6.783072856302112E-004  6.868393409521695E-004  6.954787163185376E-004  7.042267616492931E-004 
 7.130848438443167E-004  7.220543469969733E-004  7.311366726103788E-004  7.403332398163892E-004 
 7.496454855973405E-004  7.590748650105823E-004  7.686228514158317E-004  7.782909367053893E-004 
 7.880806315372532E-004  7.979934655711571E-004  8.080309877075869E-004  8.181947663297980E-004 
 8.284863895488773E-004  8.389074654518931E-004  8.494596223531564E-004  8.601445090486512E-004 
 8.709637950736626E-004  8.819191709636429E-004  8.930123485183657E-004  9.042450610693924E-004 
 9.156190637509119E-004  9.271361337739838E-004  9.387980707042303E-004  9.506066967430248E-004 
 9.625638570122094E-004  9.746714198424040E-004  9.869312770649330E-004  9.993453443074300E-004 
 1.011915561293161E-003  1.024643892144100E-003  1.037532325687841E-003  1.050582875768348E-003 
 1.063797581560620E-003  1.077178507889325E-003  1.090727745551423E-003  1.104447411642867E-003 
 1.118339649889397E-003  1.132406630981499E-003  1.146650552913594E-003  1.161073641327459E-003 
 1.175678149860004E-003  1.190466360495401E-003  1.205440583921647E-003  1.220603159891621E-003 
 1.235956457588662E-003  1.251502875996775E-003  1.267244844275466E-003  1.283184822139302E-003 
 1.299325300242260E-003  1.315668800566877E-003  1.332217876818332E-003  1.348975114823459E-003 
 1.365943132934786E-003  1.383124582439670E-003  1.400522147974547E-003  1.418138547944430E-003 
 1.435976534947655E-003  1.454038896205981E-003  1.472328454000107E-003  1.490848066110644E-003 
 1.509600626264665E-003  1.528589064587847E-003  1.547816348062308E-003  1.567285480990213E-003 
 1.586999505463187E-003  1.606961501837666E-003  1.627174589216197E-003  1.647641925934803E-003 
 1.668366710056494E-003  1.689352179870946E-003  1.710601614400517E-003  1.732118333912585E-003 
 1.753905700438348E-003  1.775967118298156E-003  1.798306034633428E-003  1.820925939945296E-003 
 1.843830368639982E-003  1.867022899581069E-003  1.890507156648706E-003  1.914286809305832E-003 
 1.938365573171562E-003  1.962747210601735E-003  1.987435531276803E-003  2.012434392797105E-003 
 2.037747701285608E-003  2.063379411998268E-003  2.089333529942032E-003  2.115614110500628E-003 
 2.142225260068246E-003  2.169171136691135E-003  2.196455950717348E-003  2.224083965454584E-003 
 2.252059497836355E-003  2.280386919096517E-003  2.309070655452268E-003  2.338115188795775E-003 
 2.367525057394464E-003  2.397304856600137E-003  2.427459239567012E-003  2.457992917978769E-003 
 2.488910662784787E-003  2.520217304945595E-003  2.551917736187719E-003  2.584016909768044E-003 
 2.616519841247740E-003  2.649431609275984E-003  2.682757356383487E-003  2.716502289786036E-003 
 2.750671682198133E-003  2.785270872656857E-003  2.820305267356112E-003  2.855780340491347E-003 
 2.891701635114913E-003  2.928074764002180E-003  2.964905410528535E-003  3.002199329557433E-003 
 3.039962348339597E-003  3.078200367423539E-003  3.116919361577539E-003  3.156125380723207E-003 
 3.195824550880800E-003  3.236023075126424E-003  3.276727234561276E-003  3.317943389293082E-003 
 3.359677979429872E-003  3.401937526086269E-003  3.444728632402410E-003  3.488057984575719E-003 
 3.531932352905628E-003  3.576358592851450E-003  3.621343646103563E-003  3.666894541668062E-003 
 3.713018396965049E-003  3.759722418940758E-003  3.807013905193641E-003  3.854900245114641E-003 
 3.903388921041796E-003  3.952487509429368E-003  4.002203682031689E-003  4.052545207101872E-003 
 4.103519950605633E-003  4.155135877450354E-003  4.207401052729613E-003  4.260323642983388E-003 
 4.313911917474072E-003  4.368174249478585E-003  4.423119117596699E-003  4.478755107075841E-003 
 4.535090911152564E-003  4.592135332410867E-003  4.649897284157633E-003  4.708385791815338E-003 
 4.767609994332298E-003  4.827579145610652E-003  4.888302615952291E-003  4.949789893523003E-003 
 5.012050585835005E-003  5.075094421248138E-003  5.138931250489953E-003  5.203571048194890E-003 
 5.269023914462858E-003  5.335300076437376E-003  5.402409889903584E-003  5.470363840906380E-003 
 5.539172547388858E-003  5.608846760851403E-003  5.679397368031617E-003  5.750835392605408E-003 
 5.823171996909461E-003  5.896418483685364E-003  5.970586297845701E-003  6.045687028262331E-003 
 6.121732409577169E-003  6.198734324035769E-003  6.276704803343918E-003  6.355656030547647E-003 
 6.435600341936832E-003  6.516550228972772E-003  6.598518340240016E-003  6.681517483422712E-003 
 6.765560627305848E-003  6.850660903801638E-003  6.936831610001424E-003  7.024086210253369E-003 
 7.112438338266277E-003  7.201901799239910E-003  7.292490572022060E-003  7.384218811292774E-003 
 7.477100849776055E-003  7.571151200479401E-003  7.666384558961447E-003  7.762815805628214E-003 
 7.860460008058179E-003  7.959332423356629E-003  8.059448500539622E-003  8.160823882947898E-003 
 8.263474410691212E-003  8.367416123123366E-003  8.472665261348388E-003  8.579238270758278E-003 
 8.687151803602567E-003  8.796422721590319E-003  8.907068098524779E-003  9.019105222971197E-003 
 9.132551600958225E-003  9.247424958713222E-003  9.363743245432052E-003  9.481524636083663E-003 
 9.600787534249965E-003  9.721550575001457E-003  9.843832627808941E-003  9.967652799491951E-003 
 1.009303043720423E-002  1.021998513145675E-002  1.034853671917878E-002  1.047870528681745E-002 
 1.061051117347627E-002  1.074397497409320E-002  1.087911754265862E-002  1.101595999547382E-002 
 1.115452371445045E-002  1.129483035045153E-002  1.143690182667437E-002  1.158076034207617E-002 
 1.172642837484268E-002  1.187392868590037E-002  1.202328432247291E-002  1.217451862168241E-002 
 1.232765521419578E-002  1.248271802791720E-002  1.263973129172676E-002  1.279871953926639E-002 
 1.295970761277322E-002  1.312272066696127E-002  1.328778417295193E-002  1.345492392225381E-002 
 1.362416603079281E-002  1.379553694299269E-002  1.396906343590715E-002  1.414477262340376E-002 
 1.432269196040054E-002  1.450284924715587E-002  1.468527263361235E-002  1.486999062379524E-002 
 1.505703208026633E-002  1.524642622863374E-002  1.543820266211847E-002  1.563239134617843E-002 
 1.582902262319056E-002  1.602812721719196E-002  1.622973623868054E-002  1.643388118947606E-002 
 1.664059396764243E-002  1.684990687247180E-002  1.706185260953138E-002  1.727646429577381E-002 
 1.749377546471171E-002  1.771382007165733E-002  1.793663249902819E-002  1.816224756171936E-002 
 1.839070051254346E-002  1.862202704773882E-002  1.885626331254718E-002  1.909344590686150E-002 
 1.933361189094467E-002  1.957679879122035E-002  1.982304460613647E-002  2.007238781210260E-002 
 2.032486736950195E-002  2.058052272877904E-002  2.083939383660392E-002  2.110152114211383E-002 
 2.136694560323359E-002  2.163570869307524E-002  2.190785240641835E-002  2.218341926627186E-002 
 2.246245233051824E-002  2.274499519864148E-002  2.303109201853955E-002  2.332078749342263E-002 
 2.361412688879808E-002  2.391115603954322E-002  2.421192135706717E-002  2.451646983656269E-002 
 2.482484906434931E-002  2.513710722530879E-002  2.545329311041407E-002  2.577345612435298E-002 
 2.609764629324783E-002  2.642591427247204E-002  2.675831135456529E-002  2.709488947724790E-002 
 2.743570123153632E-002  2.778079986996052E-002  2.813023931488487E-002  2.848407416693360E-002 
 2.884235971352221E-002  2.920515193749630E-002  2.957250752587897E-002  2.994448387872826E-002 
 3.032113911810616E-002  3.070253209716009E-002  3.108872240931900E-002  3.147977039760486E-002 
 3.187573716406140E-002  3.227668457930156E-002  3.268267529217465E-002  3.309377273955556E-002 
 3.351004115625684E-002  3.393154558506545E-002  3.435835188690602E-002  3.479052675113154E-002 
 3.522813770594380E-002  3.567125312894482E-002  3.611994225782093E-002  3.657427520116144E-002 
 3.703432294941309E-002  3.750015738597250E-002  3.797185129841811E-002  3.844947838988342E-002 
 3.893311329057324E-002  3.942283156942474E-002  3.991870974591535E-002  4.042082530201901E-002 
 4.092925669431287E-002  4.144408336623649E-002  4.196538576050469E-002  4.249324533167724E-002 
 4.302774455888604E-002  4.356896695872276E-002  4.411699709828855E-002  4.467192060840770E-002 
 4.523382419700762E-002  4.580279566266727E-002  4.637892390833568E-002  4.696229895522346E-002 
 4.755301195686853E-002  4.815115521337920E-002  4.875682218585627E-002  4.937010751099636E-002 
 4.999110701587935E-002  5.061991773294127E-002  5.125663791513597E-002  5.190136705128736E-002 
 5.255420588163462E-002  5.321525641357328E-002  5.388462193759386E-002  5.456240704342131E-002 
 5.524871763635734E-002  5.594366095382842E-002  5.664734558214185E-002  5.735988147345240E-002 
 5.808137996294277E-002  5.881195378621983E-002  5.955171709692976E-002  6.030078548459507E-002 
 6.105927599267526E-002  6.182730713685536E-002  6.260499892356422E-002  6.339247286872569E-002 
 6.418985201674596E-002  6.499726095973909E-002  6.581482585699513E-002  6.664267445469267E-002 
 6.748093610585924E-002  6.832974179058346E-002  6.918922413648036E-002  7.005951743941520E-002 
 7.094075768448713E-002  7.183308256727729E-002  7.273663151536416E-002  7.365154571010919E-002 
 7.457796810871661E-002  7.551604346657111E-002  7.646591835985575E-002  7.742774120845530E-002 
 7.840166229914666E-002  7.938783380908167E-002  8.038640982956514E-002  8.139754639013184E-002 
 8.242140148292666E-002  8.345813508739086E-002  8.450790919525933E-002  8.557088783587226E-002 
 8.664723710180477E-002  8.773712517481970E-002  8.884072235214577E-002  8.995820107308718E-002 
 9.108973594596768E-002  9.223550377541315E-002  9.339568358997820E-002  9.457045667011918E-002 
 9.576000657651995E-002  9.696451917877355E-002  9.818418268442457E-002  9.941918766837746E-002 
 1.006697271026734E-001  1.019359963866433E-001  1.032181933774390E-001  1.045165184209488E-001 
 1.058311743831026E-001  1.071623666815689E-001  1.085103033178527E-001  1.098751949097959E-001 
 1.112572547244864E-001  1.126566987115824E-001  1.140737455370539E-001  1.155086166173504E-001 
 1.169615361539975E-001  1.184327311686286E-001  1.199224315384582E-001  1.214308700321998E-001 
 1.229582823464369E-001  1.245049071424512E-001  1.260709860835136E-001  1.276567638726451E-001 
 1.292624882908514E-001  1.308884102358397E-001  1.325347837612219E-001  1.342018661162108E-001 
 1.358899177858163E-001  1.375992025315460E-001  1.393299874326190E-001  1.410825429276975E-001 
 1.428571428571428E-001  1.446540645058049E-001  1.464735886463470E-001  1.483159995831179E-001 
 1.501815851965750E-001  1.520706369882656E-001  1.539834501263760E-001  1.559203234918503E-001 
 1.578815597250926E-001  1.598674652732544E-001  1.618783504381180E-001  1.639145294245818E-001 
 1.659763203897548E-001  1.680640454926701E-001  1.701780309446227E-001  1.723186070601401E-001 
 1.744861083085957E-001  1.766808733664693E-001  1.789032451702664E-001  1.811535709701029E-001 
 1.834322023839630E-001  1.857394954526416E-001  1.880758106953746E-001  1.904415131661719E-001 
 1.928369725108577E-001  1.952625630248281E-001  1.977186637115360E-001  2.002056583417105E-001 
 2.027239355133226E-001  2.052738887123036E-001  2.078559163740288E-001  2.104704219455737E-001 
 2.131178139487530E-001  2.157985060439533E-001  2.185129170947686E-001  2.212614712334476E-001 
 2.240445979271670E-001  2.268627320451349E-001  2.297163139265405E-001  2.326057894493587E-001 
 2.355316101000183E-001  2.384942330439490E-001  2.414941211970131E-001  2.445317432978379E-001 
 2.476075739810566E-001  2.507220938514712E-001  2.538757895591484E-001  2.570691538754584E-001 
 2.603026857700728E-001  2.635768904889287E-001  2.668922796331746E-001  2.702493712391100E-001 
 2.736486898591282E-001  2.770907666436793E-001  2.805761394242640E-001  2.841053527974702E-001 
 2.876789582100682E-001  2.912975140451737E-001  2.949615857094982E-001  2.986717457216939E-001 
 3.024285738018107E-001  3.062326569618800E-001  3.100845895976348E-001  3.139849735813861E-001 
 3.179344183560670E-001  3.219335410304583E-001  3.259829664756148E-001  3.300833274225007E-001 
 3.342352645608560E-001  3.384394266393059E-001  3.426964705667283E-001  3.470070615148984E-001 
 3.513718730224215E-001  3.557915870999760E-001  3.602668943368786E-001  3.647984940089896E-001 
 3.693870941879780E-001  3.740334118519574E-001  3.787381729975155E-001  3.835021127531531E-001 
 3.883259754941493E-001  3.932105149588724E-001  3.981564943665503E-001  4.031646865365285E-001 
 4.082358740090237E-001  4.133708491673945E-001  4.185704143619578E-001  4.238353820353527E-001 
 4.291665748494903E-001  4.345648258140952E-001  4.400309784168616E-001  4.455658867552565E-001 
 4.511704156699669E-001  4.568454408800392E-001  4.625918491197090E-001  4.684105382769534E-001 
 4.743024175337930E-001  4.802684075083472E-001  4.863094403986882E-001  4.924264601284967E-001 
 4.986204224945487E-001  5.048922953160676E-001  5.112430585859401E-001  5.176737046238487E-001 
 5.241852382313209E-001  5.307786768487290E-001  5.374550507142735E-001  5.442154030249517E-001 
 5.510607900995675E-001  5.579922815437792E-001  5.650109604172253E-001  5.721179234027611E-001 
 5.793142809778109E-001  5.866011575878872E-001  5.939796918222872E-001  6.014510365919944E-001 
 6.090163593098318E-001  6.166768420728637E-001  6.244336818471082E-001  6.322880906545624E-001 
 6.402412957625806E-001  6.482945398756439E-001  6.564490813295272E-001  6.647061942879241E-001 
 6.730671689415350E-001  6.815333117096575E-001  6.901059454443264E-001  6.987864096370009E-001 
 7.075760606278733E-001  7.164762718177947E-001  7.254884338828688E-001  7.346139549917560E-001 
 7.438542610256930E-001  7.532107958012986E-001  7.626850212961686E-001  7.722784178773096E-001 
 7.819924845324578E-001  7.918287391042894E-001  8.017887185275937E-001  8.118739790694212E-001 
 8.220860965722471E-001  8.324266667002115E-001  8.428973051884313E-001  8.534996480954746E-001 
 8.642353520589930E-001  8.751060945545693E-001  8.861135741578388E-001  8.972595108098809E-001 
 9.085456460859758E-001  9.199737434677234E-001  9.315455886185875E-001  9.432629896629192E-001 
 9.551277774684673E-001  9.671418059324676E-001  9.793069522713119E-001  9.916251173138623E-001 
 1.004098225798472E+000  1.016728226673714E+000  1.029517093402924E+000  1.042466824272548E+000 
 1.055579442704379E+000  1.068856997571727E+000  1.082301563519550E+000  1.095915241288633E+000 
 1.109700158043825E+000  1.123658467706413E+000  1.137792351290683E+000  1.152104017244696E+000 
 1.166595701795378E+000  1.181269669297925E+000  1.196128212589609E+000  1.211173653348055E+000 
 1.226408342453985E+000  1.241834660358571E+000  1.257455017455373E+000  1.273271854456962E+000 
 1.289287642776304E+000  1.305504884912904E+000  1.321926114843841E+000  1.338553898419705E+000 
 1.355390833765504E+000  1.372439551686645E+000  1.389702716079984E+000  1.407183024350083E+000 
 1.424883207830675E+000  1.442806032211436E+000  1.460954297970144E+000  1.479330840810242E+000 
 1.497938532103939E+000  1.516780279340859E+000  1.535859026582336E+000  1.555177754921450E+000 
 1.574739482948801E+000  1.594547267224195E+000  1.614604202754227E+000  1.634913423475875E+000 
 1.655478102746201E+000  1.676301453838173E+000  1.697386730442771E+000  1.718737227177363E+000 
 1.740356280100496E+000  1.762247267233181E+000  1.784413609086688E+000  1.806858769197032E+000 
 1.829586254666149E+000  1.852599616709876E+000  1.875902451212861E+000  1.899498399290398E+000 
 1.923391147857387E+000  1.947584430204395E+000  1.972082026581013E+000  1.996887764786521E+000 
 2.022005520767972E+000  2.047439219225850E+000  2.073192834227275E+000  2.099270389826991E+000 
 2.125675960696122E+000  2.152413672758828E+000  2.179487703837026E+000  2.206902284303146E+000 
 2.234661697741168E+000  2.262770281615919E+000  2.291232427950811E+000  2.320052584014122E+000 
 2.349235253013866E+000  2.378784994801449E+000  2.408706426584150E+000  2.439004223646552E+000 
 2.469683120081094E+000  2.500747909527756E+000  2.532203445923091E+000  2.564054644258665E+000 
 2.596306481349009E+000  2.628963996609296E+000  2.662032292842717E+000  2.695516537037840E+000 
 2.729421961175952E+000  2.763753863048546E+000  2.798517607085146E+000  2.833718625191476E+000 
 2.869362417598238E+000  2.905454553720518E+000  2.942000673028005E+000  2.979006485926205E+000 
 3.016477774648661E+000  3.054420394160478E+000  3.092840273073154E+000  3.131743414570924E+000 
 3.171135897348809E+000  3.211023876562376E+000  3.251413584789533E+000  3.292311333004371E+000 
 3.333723511563246E+000  3.375656591203322E+000  3.418117124053593E+000  3.461111744658712E+000 
 3.504647171015626E+000  3.548730205623264E+000  3.593367736545485E+000  3.638566738487299E+000 
 3.684334273884723E+000  3.730677494008285E+000  3.777603640080400E+000  3.825120044406880E+000 
 3.873234131522558E+000  3.921953419351443E+000  3.971285520381385E+000  4.021238142853522E+000 
 4.071819091966760E+000  4.123036271097290E+000  4.174897683033563E+000  4.227411431226711E+000 
 4.280585721056718E+000  4.334428861114566E+000  4.388949264500420E+000  4.444155450138237E+000 
 4.500056044106852E+000  4.556659780987785E+000  4.613975505230103E+000  4.672012172532311E+000 
 4.730778851241759E+000  4.790284723771566E+000  4.850539088035366E+000  4.911551358900176E+000 
 4.973331069657435E+000  5.035887873512649E+000  5.099231545093701E+000  5.163371981978132E+000 
 5.228319206239719E+000  5.294083366014370E+000  5.360674737085857E+000  5.428103724491399E+000 
 5.496380864147448E+000  5.565516824496003E+000  5.635522408171508E+000  5.706408553688848E+000 
 5.778186337152491E+000  5.850866973987115E+000  5.924461820690117E+000  5.998982376606000E+000 
 6.074440285723255E+000  6.150847338493707E+000  6.228215473674787E+000  6.306556780195042E+000 
 6.385883499042980E+000  6.466208025179824E+000  6.547542909476215E+000  6.629900860673281E+000 
 6.713294747368479E+000  6.797737600026243E+000  6.883242613014117E+000  6.969823146664352E+000 
 7.057492729361456E+000  7.146265059656115E+000  7.236154008405523E+000  7.327173620940814E+000 
 7.419338119261640E+000  7.512661904258350E+000  7.607159557962241E+000  7.702845845823938E+000 
 7.799735719020605E+000  7.897844316792070E+000  7.997186968806308E+000  8.097779197554839E+000 
 8.199636720778035E+000  8.302775453921141E+000  8.407211512621066E+000  8.512961215224426E+000 
 8.620041085337437E+000  8.728467854407624E+000  8.838258464338269E+000  8.949430070135559E+000 
 9.062000042589050E+000  9.175985970985991E+000  9.291405665859575E+000  9.408277161771958E+000 
 9.526618720132173E+000  9.646448832049449E+000  9.767786221222606E+000  9.890649846865520E+000 
 1.001505890666969E+001  1.014103283980385E+001  1.026859132995130E+001  1.039775430838568E+001 
 1.052854195708512E+001  1.066097471188584E+001  1.079507326567524E+001  1.093085857162512E+001 
 1.106835184646586E+001  1.120757457380131E+001  1.134854850746590E+001  1.149129567492361E+001 
 1.163583838070974E+001  1.178219920991616E+001  1.193040103172018E+001  1.208046700295800E+001 
 1.223242057174295E+001  1.238628548112927E+001  1.254208577282213E+001  1.269984579093405E+001 
 1.285959018578883E+001  1.302134391777321E+001  1.318513226123684E+001  1.335098080844168E+001 
 1.351891547356059E+001  1.368896249672670E+001  1.386114844813335E+001  1.403550023218572E+001 
 1.421204509170485E+001  1.439081061218416E+001  1.457182472609996E+001  1.475511571727584E+001 
 1.494071222530203E+001  1.512864325001057E+001  1.531893815600637E+001  1.551162667725565E+001 
 1.570673892173195E+001  1.590430537612033E+001  1.610435691058133E+001  1.630692478357415E+001 
 1.651204064674110E+001  1.671973654985313E+001  1.693004494581762E+001  1.714299869574937E+001 
 1.735863107410499E+001  1.757697577388236E+001  1.779806691188507E+001  1.802193903405317E+001 
 1.824862712086129E+001  1.847816659278414E+001  1.871059331583123E+001  1.894594360715095E+001 
 1.918425424070508E+001  1.942556245301502E+001  1.966990594897982E+001  1.991732290776788E+001 
 2.016785198878242E+001  2.042153233770200E+001  2.067840359259730E+001  2.093850589012445E+001 
 2.120187987179666E+001  2.146856669033442E+001  2.173860801609566E+001  2.201204604358698E+001 
 2.228892349805644E+001  2.256928364216964E+001  2.285317028276953E+001  2.314062777772119E+001 
 2.343170104284314E+001  2.372643555892515E+001  2.402487737883506E+001  2.432707313471445E+001 
 2.463307004526491E+001  2.494291592312635E+001  2.525665918234750E+001  2.557434884595096E+001 
 2.589603455359306E+001  2.622176656932000E+001  2.655159578942204E+001  2.688557375038578E+001 
 2.722375263694714E+001  2.756618529024523E+001  2.791292521607871E+001  2.826402659326653E+001 
 2.861954428211311E+001  2.897953383298070E+001  2.934405149496905E+001  2.971315422470438E+001 
 3.008689969523925E+001  3.046534630506372E+001  3.084855318723059E+001  3.123658021859488E+001 
 3.162948802916960E+001  3.202733801159961E+001  3.243019233075401E+001  3.283811393343983E+001 
 3.325116655823747E+001  3.366941474545980E+001  3.409292384723712E+001  3.452176003772811E+001 
 3.495599032346006E+001  3.539568255379861E+001  3.584090543154922E+001  3.629172852369247E+001 
 3.674822227225356E+001  3.721045800530954E+001  3.767850794813418E+001  3.815244523448316E+001 
 3.863234391802187E+001  3.911827898389579E+001  3.961032636044771E+001  4.010856293108135E+001 
 4.061306654627442E+001  4.112391603574333E+001  4.164119122076001E+001  4.216497292662461E+001 
 4.269534299529437E+001  4.323238429817140E+001  4.377618074905208E+001  4.432681731723806E+001 
 4.488438004081346E+001  4.544895604008828E+001  4.602063353121093E+001  4.659950183995262E+001 
 4.718565141566412E+001  4.777917384540929E+001  4.838016186827537E+001  4.898870938986348E+001 
 4.960491149696215E+001  5.022886447240410E+001  5.086066581011131E+001  5.150041423032825E+001 
 5.214820969504699E+001  5.280415342362704E+001  5.346834790861031E+001  5.414089693173651E+001 
 5.482190558015890E+001  5.551148026286412E+001  5.620972872729948E+001  5.691676007620799E+001 
 5.763268478467644E+001  5.835761471739722E+001  5.909166314614697E+001  5.983494476748634E+001 
 6.058757572068065E+001  6.134967360584771E+001  6.212135750233266E+001  6.290274798731414E+001 
 6.369396715464536E+001  6.449513863393078E+001  6.530638760984412E+001  6.612784084168852E+001 
 6.695962668320242E+001  6.780187510261612E+001  6.865471770295849E+001  6.951828774262103E+001 
 7.039272015617955E+001  7.127815157547742E+001  7.217472035097565E+001  7.308256657336918E+001 
 7.400183209547743E+001  7.493266055440863E+001  7.587519739400302E+001  7.682958988755964E+001 
 7.779598716084706E+001  7.877454021540554E+001  7.976540195214086E+001  8.076872719521502E+001 
 8.178467271623883E+001  8.281339725876663E+001  8.385506156310126E+001  8.490982839140975E+001 
 8.597786255315461E+001  8.705933093084688E+001  8.815440250612052E+001  8.926324838613729E+001 
 9.038604183032201E+001  9.152295827743441E+001  9.267417537298272E+001  9.383987299697993E+001 
 9.502023329205170E+001  9.621544069189565E+001  9.742568195009936E+001  9.865114616932203E+001 
 9.989202483084082E+001
    </PP_R>
    <PP_RAB type="real" size="1085" columns="4">
 1.628360652775922E-006  1.648842908337540E-006  1.669582798958183E-006  1.690583565287953E-006 
 1.711848488739321E-006  1.733380891999837E-006  1.755184139551319E-006  1.777261638195556E-006 
 1.799616837586626E-006  1.822253230769919E-006  1.845174354727923E-006  1.868383790932890E-006 
 1.891885165906446E-006  1.915682151786244E-006  1.939778466899746E-006  1.964177876345211E-006 
 1.988884192580005E-006  2.013901276016307E-006  2.039233035624299E-006  2.064883429542960E-006 
 2.090856465698525E-006  2.117156202430737E-006  2.143786749126966E-006  2.170752266864313E-006 
 2.198056969059788E-006  2.225705122128660E-006  2.253701046151097E-006  2.282049115547187E-006 
 2.310753759760443E-006  2.339819463949928E-006  2.369250769691056E-006  2.399052275685226E-006 
 2.429228638478382E-006  2.459784573188602E-006  2.490724854242856E-006  2.522054316123003E-006 
 2.553777854121205E-006  2.585900425104814E-006  2.618427048290899E-006  2.651362806030513E-006 
 2.684712844602808E-006  2.718482375019164E-006  2.752676673837412E-006  2.787301083986308E-006 
 2.822361015600388E-006  2.857861946865294E-006  2.893809424873762E-006  2.930209066492368E-006 
 2.967066559239168E-006  3.004387662172396E-006  3.042178206790311E-006  3.080444097942397E-006 
 3.119191314751999E-006  3.158425911550573E-006  3.198154018823696E-006  3.238381844168956E-006 