<UPF version="2.0.1">
  <PP_INFO>
    Generated using FHI98PP, converted with fhi2upf.x v.5.0.1
    Author: Abinit web site
    Generation date: 10-Jul-2012, PG
    Pseudopotential type: SL
    Element: Na
    Functional: SLA-PW

    Suggested minimum cutoff for wavefunctions:   0. Ry
    Suggested minimum cutoff for charge density:   0. Ry
    The Pseudo was generated with a Scalar-Relativistic Calculation
    L component and cutoff radius for Local Potential:  2   0.0000

    Valence configuration: 
    nl pn  l   occ       Rcut    Rcut US       E pseu
    3s  3  0  1.00      0.000      0.000     0.000000
    3p  3  1  0.00      0.000      0.000     0.000000
    3d  3  2  0.00      0.000      0.000     0.000000
    4f  4  3  0.00      0.000      0.000     0.000000

    Generation configuration: not available.
    Comment:
    sodium, fhi98PP : Trouiller-Martins-type, LDA Ceperley/Alder Perdew/Wang (1992),
  </PP_INFO>
  <!--                               -->
  <!-- END OF HUMAN READABLE SECTION -->
  <!--                               -->
  <PP_HEADER generated="Generated using FHI98PP, converted with fhi2upf.x v.5.0.1"
             author="Abinit web site"
             date="10-Jul-2012, PG"
             comment="sodium, fhi98PP : Trouiller-Martins-type, LDA Ceperley/Alder Perdew/Wang (1992),"
             element="Na"
             pseudo_type="SL"
             relativistic="scalar"
             is_ultrasoft="F"
             is_paw="F"
             is_coulomb="F"
             has_so="F"
             has_wfc="F"
             has_gipaw="F"
             paw_as_gipaw="F"
             core_correction="T"
             functional="SLA-PW"
             z_valence="1.000000000000000E+000"
             total_psenergy="0.000000000000000E+000"
             wfc_cutoff="0.000000000000000E+000"
             rho_cutoff="0.000000000000000E+000"
             l_max="3"
             l_max_rho="0"
             l_local="2"
             mesh_size="485"
             number_of_wfc="4"
             number_of_proj="3"/>
  <PP_MESH dx="2.439988682353512E-002" mesh="485" xmin="-5.075173815233824E+000" rmax="7.643770799523600E+001"
zmesh="1.100000000000000E+001">
    <PP_R type="real" size="485" columns="4">
 5.681818181818200E-004  5.822159090909100E-004  5.965966420454500E-004  6.113325791039800E-004 
 6.264324938078500E-004  6.419053764049000E-004  6.577604392021000E-004  6.740071220503900E-004 
 6.906550979650400E-004  7.077142788847700E-004  7.251948215732300E-004  7.431071336660900E-004 
 7.614618798676400E-004  7.802699883003700E-004  7.995426570113900E-004  8.192913606395700E-004 
 8.395278572473699E-004  8.602641953213800E-004  8.815127209458100E-004  9.032860851531800E-004 
 9.255972514564600E-004  9.484595035674300E-004  9.718864533055500E-004  9.958920487022000E-004 
 1.020490582305100E-003  1.045696699688100E-003  1.071525408170400E-003  1.097992085752200E-003 
 1.125112490270300E-003  1.152902768779900E-003  1.181379467168800E-003  1.210559540007900E-003 
 1.240460360646100E-003  1.271099731554000E-003  1.302495894923400E-003  1.334667543528000E-003 
 1.367633831853200E-003  1.401414387499900E-003  1.436029322871200E-003  1.471499247146100E-003 
 1.507845278550600E-003  1.545089056930800E-003  1.583252756637000E-003  1.622359099725900E-003 
 1.662431369489200E-003  1.703493424315500E-003  1.745569711896100E-003  1.788685283780000E-003 
 1.832865810289300E-003  1.878137595803500E-003  1.924527594419800E-003  1.972063426002000E-003 
 2.020773392624200E-003  2.070686495422100E-003  2.121832451859000E-003  2.174241713419900E-003 
 2.227945483741400E-003  2.282975737189800E-003  2.339365237898400E-003  2.397147559274500E-003 
 2.456357103988500E-003  2.517029124457100E-003  2.579199743831100E-003  2.642905977503800E-003 
 2.708185755148100E-003  2.775077943300300E-003  2.843622368499800E-003  2.913859841001700E-003 
 2.985832179074500E-003  3.059582233897600E-003  3.135153915074900E-003  3.212592216777200E-003 
 3.291943244531600E-003  3.373254242671600E-003  3.456573622465600E-003  3.541950990940500E-003 
 3.629437180416700E-003  3.719084278773000E-003  3.810945660458700E-003  3.905076018272000E-003 
 4.001531395923300E-003  4.100369221402600E-003  4.201648341171300E-003  4.305429055198200E-003 
 4.411773152861600E-003  4.520743949737300E-003  4.632406325295800E-003  4.746826761530600E-003 
 4.864073382540400E-003  4.984215995089100E-003  5.107326130167800E-003  5.233477085583000E-003 
 5.362743969596900E-003  5.495203745645900E-003  5.630935278163400E-003  5.770019379534000E-003 
 5.912538858208500E-003  6.058578568006300E-003  6.208225458636000E-003  6.361568627464300E-003 
 6.518699372562700E-003  6.679711247065000E-003  6.844700114867500E-003  7.013764207704700E-003 
 7.187004183635000E-003  7.364523186970800E-003  7.546426909689000E-003  7.732823654358300E-003 
 7.923824398621000E-003  8.119542861266900E-003  8.320095569940201E-003  8.525601930517700E-003 
 8.736184298201499E-003  8.951968050367100E-003  9.173081661211099E-003  9.399656778243099E-003 
 9.631828300665699E-003  9.869734459692100E-003  1.011351690084700E-002  1.036332076829700E-002 
 1.061929479127400E-002  1.088159137261900E-002  1.115036667952300E-002  1.142578073650700E-002 
 1.170799752069800E-002  1.199718505946000E-002  1.229351553042800E-002  1.259716536403000E-002 
 1.290831534852100E-002  1.322715073763000E-002  1.355386136084900E-002  1.388864173646200E-002 
 1.423169118735300E-002  1.458321395968100E-002  1.494341934448500E-002  1.531252180229400E-002 
 1.569074109081000E-002  1.607830239575300E-002  1.647543646492800E-002  1.688237974561200E-002 
 1.729937452532900E-002  1.772666907610400E-002  1.816451780228400E-002  1.861318139200000E-002 
 1.907292697238300E-002  1.954402826860100E-002  2.002676576683500E-002  2.052142688127600E-002 
 2.102830612524300E-002  2.154770528653700E-002  2.207993360711400E-002  2.262530796721000E-002 
 2.318415307400000E-002  2.375680165492800E-002  2.434359465580500E-002  2.494488144380300E-002 
 2.556102001546500E-002  2.619237720984700E-002  2.683932892693000E-002  2.750226035142500E-002 
 2.818156618210600E-002  2.887765086680400E-002  2.959092884321400E-002  3.032182478564100E-002 
 3.107077385784600E-002  3.183822197213500E-002  3.262462605484700E-002  3.343045431840200E-002 
 3.425618654006600E-002  3.510231434760600E-002  3.596934151199200E-002  3.685778424733800E-002 
 3.776817151824700E-002  3.870104535474800E-002  3.965696117501000E-002  4.063648811603300E-002 
 4.164020937249900E-002  4.266872254400000E-002  4.372263999083600E-002  4.480258919861000E-002 
 4.590921315181600E-002  4.704317071666600E-002  4.820513703336700E-002  4.939580391809100E-002 
 5.061588027486800E-002  5.186609251765700E-002  5.314718500284400E-002  5.445992047241400E-002 
 5.580508050808200E-002  5.718346599663200E-002  5.859589760674900E-002  6.004321627763600E-002 
 6.152628371969300E-002  6.304598292756999E-002  6.460321870588100E-002  6.619891820791600E-002 
 6.783403148765101E-002  6.950953206539601E-002  7.122641750741200E-002  7.298571001984500E-002 
 7.478845705733500E-002  7.663573194665101E-002  7.852863452573300E-002  8.046829179851900E-002 
 8.245585860594200E-002  8.449251831350900E-002  8.657948351585300E-002  8.871799675869400E-002 
 9.090933127863400E-002  9.315479176121599E-002  9.545571511771800E-002  9.781347128112600E-002 
 1.002294640217700E-001  1.027051317831100E-001  1.052419485381500E-001  1.078414246670400E-001 
 1.105051078563200E-001  1.132345840203700E-001  1.160314782456700E-001  1.188974557583400E-001 
 1.218342229155700E-001  1.248435282215900E-001  1.279271633686600E-001  1.310869643038700E-001 
 1.343248123221700E-001  1.376426351865300E-001  1.410424082756400E-001  1.445261557600400E-001 
 1.480959518073200E-001  1.517539218169600E-001  1.555022436858400E-001  1.593431491048800E-001 
 1.632789248877700E-001  1.673119143325000E-001  1.714445186165100E-001  1.756791982263400E-001 
 1.800184744225300E-001  1.844649307407600E-001  1.890212145300600E-001  1.936900385289500E-001 
 1.984741824806200E-001  2.033764947878900E-001  2.083998942091500E-001  2.135473715961100E-001 
 2.188219916745400E-001  2.242268948689000E-001  2.297652991721600E-001  2.354405020617100E-001 
 2.412558824626400E-001  2.472149027594700E-001  2.533211108576200E-001  2.595781422958100E-001 
 2.659897224105100E-001  2.725596685540500E-001  2.792918923673400E-001  2.861904021088100E-001 
 2.932593050409000E-001  3.005028098754100E-001  3.079252292793300E-001  3.155309824425300E-001 
 3.233245977088600E-001  3.313107152722700E-001  3.394940899395000E-001  3.478795939610000E-001 
 3.564722199318400E-001  3.652770837641600E-001  3.742994277331300E-001  3.835446235981400E-001 
 3.930181758010100E-001  4.027257247433000E-001  4.126730501444600E-001  4.228660744830200E-001 
 4.333108665227600E-001  4.440136449258700E-001  4.549807819555400E-001  4.662188072698400E-001 
 4.777344118094000E-001  4.895344517810900E-001  5.016259527400900E-001  5.140161137727700E-001 
 5.267123117829600E-001  5.397221058839901E-001  5.530532418993300E-001  5.667136569742400E-001 
 5.807114843015100E-001  5.950550579637500E-001  6.097529178954600E-001  6.248138149674800E-001 
 6.402467161971700E-001  6.560608100872400E-001  6.722655120964000E-001  6.888704702451800E-001 
 7.058855708602300E-001  7.233209444604800E-001  7.411869717886600E-001  7.594942899918400E-001 
 7.782537989546300E-001  7.974766677888100E-001  8.171743414832000E-001  8.373585477178300E-001 
 8.580413038464600E-001  8.792349240514700E-001  9.009520266755400E-001  9.232055417344300E-001 
 9.460087186152700E-001  9.693751339650600E-001  9.933186997740000E-001  1.017853671658400E+000 
 1.042994657348400E+000  1.068756625384900E+000  1.095154914031900E+000  1.122205240408500E+000 
 1.149923709846600E+000  1.178326825479800E+000  1.207431498069100E+000  1.237255056071400E+000 
 1.267815255956400E+000  1.299130292778500E+000  1.331218811010200E+000  1.364099915642100E+000 
 1.397793183558500E+000  1.432318675192400E+000  1.467696946469600E+000  1.503949061047400E+000 
 1.541096602855300E+000  1.579161688945800E+000  1.618166982662800E+000  1.658135707134500E+000 
 1.699091659100800E+000  1.741059223080600E+000  1.784063385890600E+000  1.828129751522100E+000 
 1.873284556384700E+000  1.919554684927400E+000  1.966967685645100E+000  2.015551787480600E+000 
 2.065335916631400E+000  2.116349713772100E+000  2.168623551702300E+000  2.222188553429400E+000 
 2.277076610699100E+000  2.333320402983300E+000  2.390953416937000E+000  2.450009966335400E+000 
 2.510525212503900E+000  2.572535185252700E+000  2.636076804328400E+000  2.701187901395400E+000 
 2.767907242559800E+000  2.836274551451000E+000  2.906330532871900E+000  2.978116897033800E+000 
 3.051676384390600E+000  3.127052791085000E+000  3.204290995024800E+000  3.283436982601900E+000 
 3.364537876072200E+000  3.447641961611200E+000  3.532798718063000E+000  3.620058846399100E+000 
 3.709474299905200E+000  3.801098315112800E+000  3.894985443496100E+000  3.991191583950500E+000 
 4.089774016074000E+000  4.190791434271100E+000  4.294303982697600E+000  4.400373291070200E+000 
 4.509062511359600E+000  4.620436355390200E+000  4.734561133368400E+000  4.851504793362600E+000 
 4.971336961758600E+000  5.094128984714000E+000  5.219953970636500E+000  5.348886833711200E+000 
 5.481004338503900E+000  5.616385145664900E+000  5.755109858762800E+000  5.897261072274300E+000 
 6.042923420759500E+000  6.192183629252200E+000  6.345130564894700E+000  6.501855289847600E+000 
 6.662451115506900E+000  6.827013658059900E+000  6.995640895414000E+000  7.168433225530700E+000 
 7.345493526201300E+000  7.526927216298500E+000  7.712842318541100E+000  7.903349523809000E+000 
 8.098562257047099E+000  8.298596744796200E+000  8.503572084392600E+000  8.713610314877100E+000 
 8.928836489654600E+000  9.149378750949101E+000  9.375368406097500E+000  9.606940005728100E+000 
 9.844231423869600E+000  1.008738394003900E+001  1.033654232335800E+001  1.059185491874500E+001 
 1.085347373523800E+001  1.112155453649800E+001  1.139625693355000E+001  1.167774447980900E+001 
 1.196618476846000E+001  1.226174953224100E+001  1.256461474568700E+001  1.287496072990600E+001 
 1.319297225993400E+001  1.351883867475500E+001  1.385275399002100E+001  1.419491701357500E+001 
 1.454553146381000E+001  1.490480609096600E+001  1.527295480141300E+001  1.565019678500800E+001 
 1.603675664559800E+001  1.643286453474400E+001  1.683875628875200E+001  1.725467356908400E+001 
 1.768086400624100E+001  1.811758134719500E+001  1.856508560647000E+001  1.902364322095000E+001 
 1.949352720850800E+001  1.997501733055800E+001  2.046840025862300E+001  2.097396974501100E+001 
 2.149202679771200E+001  2.202287985961600E+001  2.256684499214800E+001  2.312424606345400E+001 
 2.369541494122200E+001  2.428069169027000E+001  2.488042477502000E+001  2.549497126696300E+001 
 2.612469705725700E+001  2.676997707457100E+001  2.743119550831300E+001  2.810874603736800E+001 
 2.880303206449100E+001  2.951446695648400E+001  3.024347429030900E+001  3.099048810528000E+001 
 3.175595316148000E+001  3.254032520456900E+001  3.334407123712200E+001  3.416766979667800E+001 
 3.501161124065600E+001  3.587639803830100E+001  3.676254506984700E+001  3.767057993307200E+001 
 3.860104325741900E+001  3.955448902587700E+001  4.053148490481600E+001  4.153261258196500E+001 
 4.255846811274000E+001  4.360966227512400E+001  4.468682093332000E+001  4.579058541037300E+001 
 4.692161287000900E+001  4.808057670789800E+001  4.926816695258300E+001  5.048509067631200E+001 
 5.173207241601700E+001  5.300985460469300E+001  5.431919801342900E+001  5.566088220436000E+001 
 5.703570599480800E+001  5.844448793288000E+001  5.988806678482200E+001  6.136730203440700E+001 
 6.288307439465700E+001  6.443628633220500E+001  6.602786260460999E+001  6.765875081094400E+001 
 6.932992195597400E+001  7.104237102828699E+001  7.279711759268601E+001  7.459520639722500E+001 
 7.643770799523600E+001
    </PP_R>
    <PP_RAB type="real" size="485" columns="4">
 1.386357205882682E-005  1.420600228867982E-005  1.455689054521008E-005  1.491644574167694E-005 
 1.528488195149640E-005  1.566241853569827E-005  1.604928027352999E-005  1.644569749628614E-005 
 1.685190622444454E-005  1.726814830818816E-005  1.769467157140056E-005  1.813172995921418E-005 
 1.857958368920671E-005  1.903849940633010E-005  1.950875034166648E-005  1.999061647510560E-005 
 2.048438470204078E-005  2.099034900418118E-005  2.150881062458426E-005  2.204007824701170E-005 
 2.258446817971280E-005  2.314230454375160E-005  2.371391946598237E-005  2.429965327679221E-005 
 2.489985471272789E-005  2.551488112413383E-005  2.614509868790004E-005  2.679088262549095E-005 
 2.745261742634108E-005  2.813069707676984E-005  2.882552529456694E-005  2.953751576934350E-005 
 3.026709240884640E-005  3.101468959134347E-005  3.178075242425005E-005  3.256573700912883E-005 
 3.337011071325574E-005  3.419435244787135E-005  3.503895295333506E-005  3.590441509128198E-005 
 3.679125414403643E-005  3.769999812139414E-005  3.863118807499280E-005  3.958537842044429E-005 
 4.056313726743098E-005  4.156504675793449E-005  4.259170341285564E-005  4.364371848715480E-005 
 4.472171833378591E-005  4.582634477663176E-005  4.695825549261342E-005  4.811812440328173E-005 
 4.930664207604158E-005  5.052451613532182E-005  5.177247168386363E-005  5.305125173445464E-005 
 5.436161765229637E-005  5.570434960830779E-005  5.708024704363328E-005  5.849012914561125E-005 
 5.993483533550588E-005  6.141522576829494E-005  6.293218184476962E-005  6.448660673633719E-005 
 6.607942592272363E-005  6.771158774301593E-005  6.938406396026800E-005  7.109785034008552E-005 
 7.285396724348705E-005  7.465346023440020E-005  7.649740070219059E-005  7.838688649953349E-005 
 8.032304259607205E-005  8.230702174819672E-005  8.434000518537746E-005  8.642320331345628E-005 
 8.855785643529790E-005  9.074523548924994E-005  9.298664280583458E-005  9.528341288313797E-005 
 9.763691318135104E-005  1.000485449369303E-004  1.025197439968738E-004  1.050519816735958E-004 
 1.076467656209337E-004  1.103056407317713E-004  1.130301900578457E-004  1.158220357522744E-004 
 1.186828400353554E-004  1.216143061842275E-004  1.246181795469779E-004  1.276962485817896E-004 
 1.308503459217598E-004  1.340823494660262E-004  1.373941834978382E-004  1.407878198302339E-004 
 1.442652789800410E-004  1.478286313708492E-004  1.514799985657078E-004  1.552215545302806E-004 
 1.590555269271793E-004  1.629841984422806E-004  1.670099081438048E-004  1.711350528749562E-004 
 1.753620886809674E-004  1.796935322713877E-004  1.841319625184915E-004  1.886800219926978E-004 
 1.933404185359186E-004  1.981159268737549E-004  2.030093902675368E-004  2.080237222071444E-004 
 2.131619081456612E-004  2.184270072768596E-004  2.238221543565964E-004  2.293505615692064E-004 
 2.350155204399657E-004  2.408204037948318E-004  2.467686677685765E-004  2.528638538624378E-004 
 2.591095910528416E-004  2.655095979518598E-004  2.720676850212783E-004  2.787877568412985E-004 
 2.856738144352610E-004  2.927299576518305E-004  2.999603876058145E-004  3.073694091796886E-004 
 3.149614335864137E-004  3.227409809960111E-004  3.307126832266013E-004  3.388812865022991E-004 
 3.472516542789154E-004  3.558287701396139E-004  3.646177407620594E-004  3.736237989588876E-004 
 3.828523067931560E-004  3.923087587709467E-004  4.019987851125867E-004  4.119281551048744E-004 
 4.221027805359742E-004  4.325287192151974E-004  4.432121785798185E-004  4.541595193907300E-004 
 4.653772595196956E-004  4.768720778298355E-004  4.886508181522215E-004  5.007204933605856E-004 
 5.130882895465795E-004  5.257615702983922E-004  5.387478810847512E-004  5.520549537475515E-004 
 5.656907111051139E-004  5.796632716694151E-004  5.939809544796564E-004  6.086522840552946E-004 
 6.236859954714620E-004  6.390910395596074E-004  6.548765882367244E-004  6.710520399661673E-004 
 6.876270253533512E-004  7.046114128795786E-004  7.220153147777027E-004  7.398490930527025E-004 
 7.581233656510961E-004  7.768490127826831E-004  7.960371833984219E-004  8.156993018283697E-004 
 8.358470745835176E-004  8.564924973257395E-004  8.776478620096884E-004  8.993257642013229E-004 
 9.215391105770893E-004  9.443011266083508E-004  9.676253644355703E-004  9.915257109371352E-004 
 1.016016395997282E-003  1.041112000978421E-003  1.066827467402569E-003  1.093178105847421E-003 
 1.120179605061861E-003  1.147848041306892E-003  1.176199887927156E-003  1.205252025158953E-003 
 1.235021750180383E-003  1.265526787409833E-003  1.296785299058877E-003  1.328815895945625E-003 
 1.361637648575467E-003  1.395270098495290E-003  1.429733269928128E-003  1.465047681695360E-003 
 1.501234359433221E-003  1.538314848111235E-003  1.576311224859583E-003  1.615246112113609E-003 
 1.655142691082802E-003  1.696024715552548E-003  1.737916526026713E-003  1.780843064219571E-003 
 1.824829887905791E-003  1.869903186137059E-003  1.916089794834638E-003  1.963417212767063E-003 
 2.011913617922399E-003  2.061607884285088E-003  2.112529599026938E-003  2.164709080122890E-003 
 2.218177394401931E-003  2.272966376043652E-003  2.329108645531930E-003  2.386637629076577E-003 
 2.445587578514773E-003  2.505993591704144E-003  2.567891633419167E-003  2.631318556764565E-003 
 2.696312125116750E-003  2.762911034607107E-003  2.831154937161826E-003  2.901084464109770E-003 
 2.972741250373257E-003  3.046167959257609E-003  3.121408307851192E-003  3.198507093055216E-003 
 3.277510218253544E-003  3.358464720644465E-003  3.441418799244449E-003  3.526421843585584E-003 
 3.613524463122319E-003  3.702778517361421E-003  3.794237146740275E-003  3.887954804264754E-003 
 3.983987287930080E-003  4.082391773942004E-003  4.183226850758304E-003  4.286552553972089E-003 
 4.392430402055184E-003  4.500923432985789E-003  4.612096241780616E-003  4.726015018952538E-003 
 4.842747589920785E-003  4.962363455391796E-003  5.084933832739952E-003  5.210531698408483E-003 
 5.339231831359321E-003  5.471110857593868E-003  5.606247295776391E-003  5.744721603982011E-003 
 5.886616227600507E-003  6.032015648422308E-003  6.181006434938122E-003  6.333677293881259E-003 
 6.490119123039967E-003  6.650425065379065E-003  6.814690564494048E-003  6.983013421436972E-003 
 7.155493852946522E-003  7.332234551114297E-003  7.513340744526756E-003  7.698920260916579E-003 
 7.889083591361208E-003  8.083943956067858E-003  8.283617371782853E-003  8.488222720865751E-003 
 8.697881822071216E-003  8.912719503076462E-003  9.132863674802335E-003  9.358445407569993E-003 
 9.589599009136874E-003  9.826462104662677E-003  1.006917571864786E-002  1.031788435889826E-002 
 1.057273610256328E-002  1.083388268429654E-002  1.110147958659869E-002  1.137568613238763E-002 
 1.165666557985748E-002  1.194458521967991E-002  1.223961647460617E-002  1.254193500152894E-002 
 1.285172079606677E-002  1.316915829972940E-002  1.349443650973284E-002  1.382774909152316E-002 
 1.416929449408394E-002  1.451927606808763E-002  1.487790218696953E-002  1.524538637098773E-002 
 1.562194741435096E-002  1.600780951548543E-002  1.640320241051804E-002  1.680836151005781E-002 
 1.722352803935609E-002  1.764894918192824E-002  1.808487822672202E-002  1.853157471892206E-002 
 1.898930461447923E-002  1.945834043845688E-002  1.993896144728692E-002  2.043145379503479E-002 
 2.093611070377214E-002  2.145323263815536E-002  2.198312748431777E-002  2.252611073318052E-002 
 2.308250566829007E-002  2.365264355829666E-002  2.423686385418666E-002  2.483551439138464E-002 
 2.544895159685275E-002  2.607754070129488E-002  2.672165595661669E-002  2.738168085874542E-002 
 2.805800837595668E-002  2.875104118284254E-002  2.946119190005751E-002  3.018888333998876E-002 
 3.093454875848737E-002  3.169863211282144E-002  3.248158832600987E-002  3.328388355766105E-002 
 3.410599548153626E-002  3.494841356993032E-002  3.581163938510632E-002  3.669618687791847E-002 
 3.760258269380377E-002  3.853136648634009E-002  3.948309123855364E-002  4.045832359214418E-002 
 4.145764418487204E-002  4.248164799623862E-002  4.353094470174351E-002  4.460615903587662E-002 
 4.570793116406287E-002  4.683691706381517E-002  4.799378891529125E-002  4.917923550150056E-002 
 5.039396261838833E-002  5.163869349506019E-002  5.291416922438889E-002  5.422114920423259E-002 
 5.556041158957698E-002  5.693275375583788E-002  5.833899277360739E-002  5.977996589511685E-002 
 6.125653105272662E-002  6.276956736972784E-002  6.431997568375909E-002  6.590867908315011E-002 
 6.753662345650230E-002  6.920477805587724E-002  7.091413607385888E-002  7.266571523488231E-002 
 7.446055840118550E-002  7.629973419369362E-002  7.818433762827787E-002  8.011549076769602E-002 
 8.209434338965892E-002  8.412207367138390E-002  8.619988889106715E-002  8.832902614667515E-002 
 9.051075309249906E-002  9.274636869388236E-002  9.503720400062159E-002  9.738462293943807E-002 
 9.979002312604031E-002  1.022548366972553E-001  1.047805311636776E-001  1.073686102834197E-001 
 1.100206149574193E-001  1.127381241468680E-001  1.155227558132971E-001  1.183761678818856E-001 
 1.213000592285668E-001  1.242961706915115E-001  1.273662861075934E-001  1.305122333744504E-001 
 1.337358855388001E-001  1.370391619116074E-001  1.404240292108235E-001  1.438925027323323E-001 
 1.474466475498215E-001  1.510885797443006E-001  1.548204676639842E-001  1.586445332152846E-001 
 1.625630531857037E-001  1.665783605993900E-001  1.706928461061955E-001  1.749089594050179E-001 
 1.792292107023216E-001  1.836561722066697E-001  1.881924796601751E-001  1.928408339077798E-001 
 1.976040025053024E-001  2.024848213671842E-001  2.074861964549521E-001  2.126111055073895E-001 
 2.178625998134228E-001  2.232438060288152E-001  2.287579280377259E-001  2.344082488602575E-001 
 2.401981326071062E-001  2.461310264824974E-001  2.522104628366160E-001  2.584400612686818E-001 
 2.648235307820182E-001  2.713646719923248E-001  2.780673793905474E-001  2.849356436615016E-001 
 2.919735540599338E-001  2.991853008452151E-001  3.065751777760833E-001  3.141475846671655E-001 
 3.219070300084280E-001  3.298581336496515E-001  3.380056295507870E-001  3.463543686007031E-001 
 3.549093215051332E-001  3.636755817463073E-001  3.726583686154445E-001  3.818630303202484E-001 
 3.912950471691660E-001  4.009600348342377E-001  4.108637476946391E-001  4.210120822626924E-001 
 4.314110806945962E-001  4.420669343877490E-001  4.529859876671088E-001  4.641747415624911E-001 
 4.756398576790977E-001  4.873881621637678E-001  4.994266497692182E-001  5.117624880185182E-001 
 5.244030214725568E-001  5.373557761029415E-001  5.506284637726715E-001  5.642289868278552E-001 
 5.781654428025199E-001  5.924461292397377E-001  6.070795486319672E-001  6.220744134831769E-001 
 6.374396514962118E-001  6.531844108881621E-001  6.693180658371022E-001  6.858502220632705E-001 
 7.027907225482335E-001  7.201496533951767E-001  7.379373498340337E-001  7.561644023749434E-001 
 7.748416631135944E-001  7.939802521925110E-001  8.135915644216696E-001  8.336872760628624E-001 
 8.542793517816165E-001  8.753800517706418E-001  8.970019390493759E-001  9.191578869438900E-001 
 9.418610867514071E-001  9.651250555941607E-001  9.889636444673325E-001  1.013391046485677E+000 
 1.038421805333884E+000  1.064070823925615E+000  1.090353373276588E+000  1.117285101596520E+000 
 1.144882043605949E+000  1.173160630083010E+000  1.202137697646058E+000  1.231830498777921E+000 
 1.262256712097738E+000  1.293434452886561E+000  1.325382283872861E+000  1.358119226284504E+000 
 1.391664771173739E+000  1.426038891021736E+000  1.461262051629970E+000  1.497355224305227E+000 
 1.534339898345570E+000  1.572238093834705E+000  1.611072374752411E+000  1.650865862408799E+000 
 1.691642249210288E+000  1.733425812765793E+000  1.776241430341116E+000  1.820114593670533E+000 
 1.865071424134184E+000
    </PP_RAB>
  </PP_MESH>
  <PP_NLCC type="real" size="485" columns="4">
 5.007370675307658E-002  5.007370675282989E-002  5.007370675256410E-002  5.007370675227842E-002 
 5.007370675197046E-002  5.007370675163941E-002  5.007370675128370E-002  5.007370675090014E-002 
 5.007370675048792E-002  5.007370675004467E-002  5.007370674956722E-002  5.007370674905394E-002 
 5.007370674850167E-002  5.007370674790723E-002  5.007370674726742E-002  5.007370674657988E-002 
 5.007370674583901E-002  5.007370674504244E-002  5.007370674418539E-002  5.007370674326309E-002 
 5.007370674227155E-002  5.007370674120361E-002  5.007370674005533E-002  5.007370673881948E-002 
 5.007370673748975E-002  5.007370673605894E-002  5.007370673451991E-002  5.007370673286390E-002 
 5.007370673108216E-002  5.007370672916434E-002  5.007370672710170E-002  5.007370672488228E-002 
 5.007370672249496E-002  5.007370671992540E-002  5.007370671716087E-002  5.007370671418707E-002 
 5.007370671098647E-002  5.007370670754394E-002  5.007370670383882E-002  5.007370669985358E-002 
 5.007370669556515E-002  5.007370669095045E-002  5.007370668598641E-002  5.007370668064517E-002 
 5.007370667489808E-002  5.007370666871411E-002  5.007370666206144E-002  5.007370665490345E-002 
 5.007370664720193E-002  5.007370663891554E-002  5.007370663000047E-002  5.007370662040820E-002 
 5.007370661008780E-002  5.007370659898277E-002  5.007370658703580E-002  5.007370657418085E-002 
 5.007370656035109E-002  5.007370654547010E-002  5.007370652945990E-002  5.007370651223377E-002 
 5.007370649370017E-002  5.007370647375886E-002  5.007370645230397E-002  5.007370642922015E-002 
 5.007370640438401E-002  5.007370637766190E-002  5.007370634891135E-002  5.007370631797800E-002 
 5.007370628469632E-002  5.007370624888804E-002  5.007370621036141E-002  5.007370616890951E-002 
 5.007370612431111E-002  5.007370607632668E-002  5.007370602469920E-002  5.007370596915334E-002 
 5.007370590939066E-002  5.007370584509047E-002  5.007370577590980E-002  5.007370570147780E-002 
 5.007370562139581E-002  5.007370553523410E-002  5.007370544253271E-002  5.007370534279509E-002 
 5.007370523548565E-002  5.007370512003147E-002  5.007370499581423E-002  5.007370486216864E-002 
 5.007370471837852E-002  5.007370456367434E-002  5.007370439722931E-002  5.007370421815055E-002 
 5.007370402548076E-002  5.007370381818781E-002  5.007370359516240E-002  5.007370335521086E-002 
 5.007370309704880E-002  5.007370281929478E-002  5.007370252046228E-002  5.007370219895179E-002 
 5.007370185304284E-002  5.007370148088447E-002  5.007370108048565E-002  5.007370064970335E-002 
 5.007370018623301E-002  5.007369968759581E-002  5.007369915112269E-002  5.007369857394411E-002 
 5.007369795297324E-002  5.007369728488775E-002  5.007369656611457E-002  5.007369579280936E-002 
 5.007369496083643E-002  5.007369406574586E-002  5.007369310275182E-002  5.007369206670406E-002 
 5.007369095206401E-002  5.007368975287211E-002  5.007368846271597E-002  5.007368707470025E-002 
 5.007368558140433E-002  5.007368397484659E-002  5.007368224644062E-002  5.007368038694907E-002 
 5.007367838643589E-002  5.007367623420985E-002  5.007367391877281E-002  5.007367142775366E-002 
 5.007366874784542E-002  5.007366586473214E-002  5.007366276301557E-002  5.007365942612927E-002 
 5.007365583625345E-002  5.007365197422028E-002  5.007364781940968E-002  5.007364334963939E-002 
 5.007363854104972E-002  5.007363336797532E-002  5.007362780280761E-002  5.007362181584826E-002 
 5.007361537515409E-002  5.007360844636115E-002  5.007360099251049E-002  5.007359297384359E-002 
 5.007358434759554E-002  5.007357506776897E-002  5.007356508488577E-002  5.007355434572773E-002 
 5.007354279305318E-002  5.007353036529303E-002  5.007351699622369E-002  5.007350261461698E-002 
 5.007348714386286E-002  5.007347050156283E-002  5.007345259909068E-002  5.007343334112770E-002 
 5.007341262515744E-002  5.007339034091733E-002  5.007336636982423E-002  5.007334058433931E-002 
 5.007331284729726E-002  5.007328301118217E-002  5.007325091734518E-002  5.007321639516982E-002 
 5.007317926116794E-002  5.007313931801527E-002  5.007309635350495E-002  5.007305013943504E-002 