<UPF version="2.0.1">
  <PP_INFO>
    Generated using FHI98PP, converted with fhi2upf.x v.5.0.1
    Author: Abinit web site
    Generation date: 10-Jul-2012, PG
    Pseudopotential type: SL
    Element: Nb
    Functional: SLA-PW

    Suggested minimum cutoff for wavefunctions:   0. Ry
    Suggested minimum cutoff for charge density:   0. Ry
    The Pseudo was generated with a Non-Relativistic Calculation
    L component and cutoff radius for Local Potential:  1   0.0000

    Valence configuration: 
    nl pn  l   occ       Rcut    Rcut US       E pseu
    5s  5  0  2.00      0.000      0.000     0.000000
    5p  5  1  0.00      0.000      0.000     0.000000
    4d  4  2  3.00      0.000      0.000     0.000000
    4f  4  3  0.00      0.000      0.000     0.000000

    Generation configuration: not available.
    Comment:
    niobium, fhi98PP : Trouiller-Martins-type, LDA Ceperley/Alder Perdew/Wang (1992)
  </PP_INFO>
  <!--                               -->
  <!-- END OF HUMAN READABLE SECTION -->
  <!--                               -->
  <PP_HEADER generated="Generated using FHI98PP, converted with fhi2upf.x v.5.0.1"
             author="Abinit web site"
             date="10-Jul-2012, PG"
             comment="niobium, fhi98PP : Trouiller-Martins-type, LDA Ceperley/Alder Perdew/Wang (1992)"
             element="Nb"
             pseudo_type="SL"
             relativistic="no"
             is_ultrasoft="F"
             is_paw="F"
             is_coulomb="F"
             has_so="F"
             has_wfc="F"
             has_gipaw="F"
             paw_as_gipaw="F"
             core_correction="F"
             functional="SLA-PW"
             z_valence="5.000000000000000E+000"
             total_psenergy="0.000000000000000E+000"
             wfc_cutoff="0.000000000000000E+000"
             rho_cutoff="0.000000000000000E+000"
             l_max="3"
             l_max_rho="0"
             l_local="1"
             mesh_size="539"
             number_of_wfc="4"
             number_of_proj="3"/>
  <PP_MESH dx="2.439988682353512E-002" mesh="539" xmin="-5.075173815233852E+000" rmax="7.658438686349901E+001"
zmesh="4.100000000000000E+001">
    <PP_R type="real" size="539" columns="4">
 1.524390243902400E-004  1.562042682926800E-004  1.600625137195100E-004  1.640160578083800E-004 
 1.680672544362500E-004  1.722185156208300E-004  1.764723129566600E-004  1.808311790866900E-004 
 1.852977092101300E-004  1.898745626276200E-004  1.945644643245200E-004  1.993702065933400E-004 
 2.042946506962000E-004  2.093407285683900E-004  2.145114445640300E-004  2.198098772447600E-004 
 2.252391812127100E-004  2.308025889886600E-004  2.365034129366800E-004  2.423450472362200E-004 
 2.483309699029500E-004  2.544647448595600E-004  2.607500240575900E-004  2.671905496518100E-004 
 2.737901562282100E-004  2.805527730870400E-004  2.874824265822900E-004  2.945832425188800E-004 
 3.018594486090900E-004  3.093153769897400E-004  3.169554668013900E-004  3.247842668313800E-004 
 3.328064382221100E-004  3.410267572462000E-004  3.494501181501800E-004  3.580815360684900E-004 
 3.669261500093800E-004  3.759892259146100E-004  3.852761597947100E-004  3.947924809416300E-004 
 4.045438552208900E-004  4.145360884448500E-004  4.247751298294400E-004  4.352670755362200E-004 
 4.460181723019700E-004  4.570348211578300E-004  4.683235812404300E-004  4.798911736970600E-004 
 4.917444856873800E-004  5.038905744838600E-004  5.163366716736100E-004  5.290901874639500E-004 
 5.421587150943100E-004  5.555500353571400E-004  5.692721212304600E-004  5.833331426248500E-004 
 5.977414712476900E-004  6.125056855875000E-004  6.276345760215100E-004  6.431371500492500E-004 
 6.590226376554600E-004  6.753004968055500E-004  6.919804190766500E-004  7.090723354278400E-004 
 7.265864221129100E-004  7.445331067391000E-004  7.629230744755500E-004  7.817672744151000E-004 
 8.010769260931500E-004  8.208635261676600E-004  8.411388552640000E-004  8.619149849890200E-004 
 8.832042851182500E-004  9.050194309606700E-004  9.273734109053900E-004  9.502795341547600E-004 
 9.737514386483800E-004  9.978030991829900E-004  1.022448835732800E-003  1.047703321975400E-003 
 1.073581594028200E-003  1.100099059400700E-003  1.127271506167900E-003  1.155115112370200E-003 
 1.183646455645800E-003  1.212882523100200E-003  1.242840721420800E-003  1.273538887239900E-003 
 1.304995297754700E-003  1.337228681609300E-003  1.370258230045000E-003  1.404103608327100E-003 
 1.438784967452800E-003  1.474322956148900E-003  1.510738733165800E-003  1.548053979875000E-003 
 1.586290913177900E-003  1.625472298733400E-003  1.665621464512100E-003  1.706762314685600E-003 
 1.748919343858300E-003  1.792117651651600E-003  1.836382957647400E-003  1.881741616701300E-003 
 1.928220634633800E-003  1.975847684309200E-003  2.024651122111700E-003  2.074660004827800E-003 
 2.125904106947100E-003  2.178413938388700E-003  2.232220762666900E-003  2.287356615504800E-003 
 2.343854323907700E-003  2.401747525708200E-003  2.461070689593200E-003  2.521859135626200E-003 
 2.584149056276200E-003  2.647977537966200E-003  2.713382583153900E-003  2.780403132957800E-003 
 2.849079090341900E-003  2.919451343873300E-003  2.991561792067000E-003  3.065453368331100E-003 
 3.141170066528800E-003  3.218756967172100E-003  3.298260264261300E-003  3.379727292788500E-003 
 3.463206556920400E-003  3.548747758876300E-003  3.636401828520600E-003  3.726220953685000E-003 
 3.818258611241000E-003  3.912569598938700E-003  4.009210068032500E-003  4.108237556712900E-003 
 4.209711024363700E-003  4.313690886665500E-003  4.420239051566100E-003  4.529418956139800E-003 
 4.641295604356500E-003  4.755935605784100E-003  4.873407215246900E-003  4.993780373463500E-003 
 5.117126748688100E-003  5.243519779380700E-003  5.373034717931400E-003  5.505748675464300E-003 
 5.641740667748200E-003  5.781091662241600E-003  5.923884626299000E-003  6.070204576568600E-003 
 6.220138629609800E-003  6.373776053761200E-003  6.531208322289100E-003  6.692529167849600E-003 
 6.857834638295500E-003  7.027223153861400E-003  7.200795565761800E-003  7.378655216236100E-003 
 7.560908000077100E-003  7.747662427679000E-003  7.939029689642701E-003  8.135123722976900E-003 
 8.336061278934400E-003  8.541961992524100E-003  8.752948453739400E-003  8.969146280546800E-003 
 9.190684193676300E-003  9.417694093260100E-003  9.650311137363600E-003  9.888673822456499E-003 
 1.013292406587100E-002  1.038320729029800E-002  1.063967251036900E-002  1.090247242137500E-002 
 1.117176349018300E-002  1.144770604839000E-002  1.173046438778500E-002  1.202020685816400E-002 
 1.231710596756000E-002  1.262133848495900E-002  1.293308554553800E-002  1.325253275851200E-002 
 1.357987031764800E-002  1.391529311449300E-002  1.425900085442100E-002  1.461119817552600E-002 
 1.497209477046100E-002  1.534190551129200E-002  1.572085057742000E-002  1.610915558668300E-002 
 1.650705172967400E-002  1.691477590739700E-002  1.733257087230900E-002  1.776068537285500E-002 
 1.819937430156500E-002  1.864889884681400E-002  1.910952664833000E-002  1.958153195654400E-002 
 2.006519579587000E-002  2.056080613202800E-002  2.106865804348900E-002  2.158905389716400E-002 
 2.212230352842400E-002  2.266872442557600E-002  2.322864191888700E-002  2.380238937428400E-002 
 2.439030839182900E-002  2.499274900910700E-002  2.561006990963200E-002  2.624263863640000E-002 
 2.689083181071900E-002  2.755503535644300E-002  2.823564472974800E-002  2.893306515457200E-002 
 2.964771186389000E-002  3.038001034692800E-002  3.113039660249800E-002  3.189931739857900E-002 
 3.268723053832400E-002  3.349460513262100E-002  3.432192187939600E-002  3.516967334981800E-002 
 3.603836428155800E-002  3.692851187931200E-002  3.784064612273200E-002  3.877531008196300E-002 
 3.973306024098700E-002  4.071446682894000E-002  4.172011415961500E-002  4.275060097935700E-002 
 4.380654082354700E-002  4.488856238188900E-002  4.599730987272200E-002  4.713344342657800E-002 
 4.829763947921400E-002  4.949059117435100E-002  5.071300877635700E-002  5.196562009313300E-002 
 5.324917090943400E-002  5.456442543089700E-002  5.591216673904000E-002  5.729319725749400E-002 
 5.870833922975400E-002  6.015843520872900E-002  6.164434855838500E-002  6.316696396777700E-002 
 6.472718797778100E-002  6.632594952083200E-002  6.796420047399700E-002  6.964291622570400E-002 
 7.136309625647901E-002  7.312576473401400E-002  7.493197112294400E-002  7.678279080968101E-002 
 7.867932574268000E-002  8.062270508852400E-002  8.261408590421100E-002  8.465465382604501E-002 
 8.674562377554799E-002  8.888824068280400E-002  9.108378022767000E-002  9.333354959929301E-002 
 9.563888827439600E-002  9.800116881477300E-002  1.004217976845000E-001  1.029022160873100E-001 
 1.054439008246600E-001  1.080483651750300E-001  1.107171597948500E-001  1.134518736417900E-001 
 1.162541349207400E-001  1.191256120532800E-001  1.220680146710000E-001  1.250830946333700E-001 
 1.281726470708200E-001  1.313385114534600E-001  1.345825726863600E-001  1.379067622317200E-001 
 1.413130592588400E-001  1.448034918225300E-001  1.483801380705500E-001  1.520451274808900E-001 
 1.558006421296700E-001  1.596489179902700E-001  1.635922462646300E-001  1.676329747473700E-001 
 1.717735092236300E-001  1.760163149014500E-001  1.803639178795200E-001  1.848189066511500E-001 
 1.893839336454300E-001  1.940617168064700E-001  1.988550412115900E-001  2.037667607295200E-001 
 2.087997997195400E-001  2.139571547726100E-001  2.192418964954900E-001  2.246571713389300E-001 
 2.302062034710000E-001  2.358922966967400E-001  2.417188364251400E-001  2.476892916848500E-001 
 2.538072171894600E-001  2.600762554540400E-001  2.665001389637600E-001  2.730826923961600E-001 
 2.798278348983500E-001  2.867395824203300E-001  2.938220501061200E-001  3.010794547437400E-001 
 3.085161172759100E-001  3.161364653726200E-001  3.239450360673300E-001  3.319464784581900E-001 
 3.401455564761100E-001  3.485471517210700E-001  3.571562663685800E-001  3.659780261478800E-001 
 3.750176833937300E-001  3.842806201735600E-001  3.937723514918500E-001  4.034985285737000E-001 
 4.134649422294700E-001  4.236775263025300E-001  4.341423612022100E-001  4.448656775239000E-001 
 4.558538597587400E-001  4.671134500947800E-001  4.786511523121200E-001  4.904738357742300E-001 
 5.025885395178600E-001  5.150024764439500E-001  5.277230376121100E-001  5.407577966411300E-001 
 5.541145142181700E-001  5.678011427193600E-001  5.818258309445200E-001  5.961969289688500E-001 
 6.109229931143800E-001  6.260127910443100E-001  6.414753069831000E-001  6.573197470655900E-001 
 6.735555448181100E-001  6.901923667751100E-001  7.072401182344600E-001  7.247089491548500E-001 
 7.426092601989700E-001  7.609517089258900E-001  7.797472161363600E-001  7.990069723749300E-001 
 8.187424445925900E-001  8.389653829740200E-001  8.596878279334800E-001  8.809221172834401E-001 
 9.026808935803400E-001  9.249771116517700E-001  9.478240463095700E-001  9.712353002534200E-001 
 9.952248121696800E-001  1.019806865030300E+000  1.044996094596500E+000  1.070807498133100E+000 
 1.097256443336900E+000  1.124358677487400E+000  1.152130336821300E+000  1.180587956140800E+000 
 1.209748478657500E+000  1.239629266080300E+000  1.270248108952500E+000  1.301623237243600E+000 
 1.333773331203500E+000  1.366717532484300E+000  1.400475455536600E+000  1.435067199288400E+000 
 1.470513359110800E+000  1.506835039080800E+000  1.544053864546100E+000  1.582191995000400E+000 
 1.621272137276900E+000  1.661317559067700E+000  1.702352102776600E+000  1.744400199715200E+000 
 1.787486884648200E+000  1.831637810699000E+000  1.876879264623300E+000  1.923238182459500E+000 
 1.970742165566200E+000  2.019419497055700E+000  2.069299158633000E+000  2.120410847851200E+000 
 2.172784995793100E+000  2.226452785189200E+000  2.281446168983400E+000  2.337797889357300E+000 
 2.395541497224400E+000  2.454711372205800E+000  2.515342743099300E+000  2.577471708853900E+000 
 2.641135260062600E+000  2.706371300986100E+000  2.773218672120500E+000  2.841717173321800E+000 
 2.911907587502900E+000  2.983831704914200E+000  3.057532348025600E+000  3.133053397021800E+000 
 3.210439815928300E+000  3.289737679381700E+000  3.370994200062400E+000  3.454257756804000E+000 
 3.539577923397000E+000  3.627005498104900E+000  3.716592533908100E+000  3.808392369495700E+000 
 3.902459661022200E+000  3.998850414649400E+000  4.097622019891300E+000  4.198833283782600E+000 
 4.302544465892000E+000  4.408817314199600E+000  4.517715101860300E+000  4.629302664876200E+000 
 4.743646440698700E+000  4.860814507783900E+000  4.980876626126200E+000  5.103904278791500E+000 
 5.229970714477700E+000  5.359150991125300E+000  5.491522020606100E+000  5.627162614515000E+000 
 5.766153531093600E+000  5.908577523311600E+000  6.054519388137400E+000  6.204066017024400E+000 
 6.357306447644900E+000  6.514331916901700E+000  6.675235915249200E+000  6.840114242355800E+000 
 7.009065064142000E+000  7.182188971226300E+000  7.359589038815600E+000  7.541370888074300E+000 
 7.727642749009800E+000  7.918515524910300E+000  8.114102858375601E+000  8.314521198977500E+000 
 8.519889872592200E+000  8.730331152445199E+000  8.945970331910599E+000  9.166935799108799E+000 
 9.393359113346801E+000  9.625375083446500E+000  9.863121848007600E+000  1.010674095765300E+001 
 1.035637745930700E+001  1.061217998255200E+001  1.087430082812100E+001  1.114289605857600E+001 
 1.141812559122300E+001  1.170015329332600E+001  1.198914707967100E+001  1.228527901253900E+001 
 1.258872540414900E+001  1.289966692163100E+001  1.321828869459600E+001  1.354478042535200E+001 
 1.387933650185800E+001  1.422215611345400E+001  1.457344336945600E+001  1.493340742068200E+001 
 1.530226258397300E+001  1.568022846979700E+001  1.606753011300100E+001  1.646439810679200E+001 
 1.687106874003000E+001  1.728778413790900E+001  1.771479240611500E+001  1.815234777854600E+001 
 1.860071076867600E+001  1.906014832466200E+001  1.953093398828100E+001  2.001334805779200E+001 
 2.050767775481900E+001  2.101421739536400E+001  2.153326856502900E+001  2.206514029858500E+001 
 2.261014926396000E+001  2.316861995078000E+001  2.374088486356400E+001  2.432728471969400E+001 
 2.492816865227100E+001  2.554389441798200E+001  2.617482861010600E+001  2.682134687677600E+001 
 2.748383414463200E+001  2.816268484800400E+001  2.885830316375000E+001  2.957110325189500E+001 
 3.030150950221700E+001  3.104995678692100E+001  3.181689071955800E+001  3.260276792033100E+001 
 3.340805628796400E+001  3.423323527827600E+001  3.507879618965000E+001  3.594524245553400E+001 
 3.683308994418600E+001  3.774286726580700E+001  3.867511608727300E+001  3.963039145462800E+001 
 4.060926212355800E+001  4.161231089800900E+001  4.264013497719000E+001  4.369334631112700E+001 
 4.477257196501200E+001  4.587845449254700E+001  4.701165231851300E+001  4.817284013078100E+001 
 4.936270928201100E+001  5.058196820127700E+001  5.183134281584800E+001  5.311157698340000E+001 
 5.442343293489000E+001  5.576769172838100E+001  5.714515371407200E+001  5.855663901081000E+001 
 6.000298799437700E+001  6.148506179783800E+001  6.300374282424500E+001  6.455993527200300E+001 
 6.615456567322200E+001  6.778858344535000E+001  6.946296145645100E+001  7.117869660442500E+001 
 7.293681041055400E+001  7.473834962769500E+001  7.658438686349901E+001
    </PP_R>
    <PP_RAB type="real" size="539" columns="4">
 3.719494942611966E-006  3.811366467694507E-006  3.905507219446581E-006  4.001973247766866E-006 
 4.100821986986781E-006  4.202112290065467E-006  4.305904463629974E-006  4.412260303881648E-006 
 4.521243133387494E-006  4.632917838782159E-006  4.747350909400025E-006  4.864610476862311E-006 
 4.984766355640921E-006  5.107890084625102E-006  5.234054969715360E-006  5.363336127467292E-006 
 5.495810529815842E-006  5.631557049902198E-006  5.770656509034784E-006  5.913191724808041E-006 
 6.059247560410687E-006  6.208910975153005E-006  6.362271076239255E-006  6.519419171822305E-006 
 6.680448825366323E-006  6.845455911352707E-006  7.014538672363121E-006  7.187797777570671E-006 
 7.365336382676512E-006  7.547260191328755E-006  7.733677518054660E-006  7.924699352750504E-006 
 8.120439426763318E-006  8.321014280604465E-006  8.526543333335369E-006  8.737148953668765E-006 
 8.952956532824341E-006  9.174094559185063E-006  9.400694694797157E-006  9.632891853758419E-006 
 9.870824282546292E-006  1.011463364232528E-005  1.036446509329077E-005  1.062046738109488E-005 
 1.088279292540806E-005  1.115159791066567E-005  1.142704237905915E-005  1.170929032582170E-005 
 1.199850979686956E-005  1.229487298885228E-005  1.259855635167690E-005  1.290974069356336E-005 
 1.322861128869439E-005  1.355535798752515E-005  1.389017532981699E-005  1.423326266046341E-005 
 1.458482424817701E-005  1.494506940710679E-005  1.531421262146229E-005  1.569247367321263E-005 
 1.608007777294082E-005  1.647725569393246E-005  1.688424390957266E-005  1.730128473413903E-005 
 1.772862646707232E-005  1.816652354080903E-005  1.861523667226687E-005  1.907503301807196E-005 
 1.954618633361827E-005  2.002897713605887E-005  2.052369287131949E-005  2.103062808524106E-005 
 2.155008459894655E-005  2.208237168854050E-005  2.262780626924725E-005  2.318671308409782E-005 
 2.375942489727497E-005  2.434628269223755E-005  2.494763587473557E-005  2.556384248084154E-005 
 2.619526939011851E-005  2.684229254405452E-005  2.750529716989273E-005  2.818467800998793E-005 
 2.888083955683600E-005  2.959419629388860E-005  3.032517294234827E-005  3.107420471402442E-005 
 3.184173757046019E-005  3.262822848845200E-005  3.343414573211556E-005  3.425996913169852E-005 
 3.510619036925198E-005  3.597331327137290E-005  3.686185410917634E-005  3.777234190567312E-005 
 3.870531875074294E-005  3.966134012388643E-005  4.064097522494606E-005  4.164480731300347E-005 
 4.267343405363382E-005  4.372746787475858E-005  4.480753633126525E-005  4.591428247864773E-005 
 4.704836525586979E-005  4.821045987768843E-005  4.940125823666886E-005  5.062146931511315E-005 
 5.187181960719775E-005  5.315305355149569E-005  5.446593397421761E-005  5.581124254338145E-005 
 5.718978023420131E-005  5.860236780598559E-005  6.004984629079362E-005  6.153307749417738E-005 
 6.305294450828436E-005  6.461035223763845E-005  6.620622793790654E-005  6.784152176797280E-005 
 6.951720735564277E-005  7.123428237732603E-005  7.299376915204671E-005  7.479671525010336E-005 
 7.664419411677900E-005  7.853730571146439E-005  8.047717716253876E-005  8.246496343845215E-005 
 8.450184803538250E-005  8.658904368185563E-005  8.872779306079880E-005  9.091936954939910E-005 
 9.316507797726879E-005  9.546625540330848E-005  9.782427191177054E-005  1.002405314279912E-004 
 1.027164725542624E-004  1.052535694263531E-004  1.078533325911831E-004  1.105173099061857E-004 
 1.132470874608696E-004  1.160442905211530E-004  1.189105844970238E-004  1.218476759341004E-004 
 1.248573135296739E-004  1.279412891738569E-004  1.311014390164511E-004  1.343396445601573E-004 
 1.376578337807915E-004  1.410579822751776E-004  1.445421144373753E-004  1.481123046639788E-004 
 1.517706785891780E-004  1.555194143503316E-004  1.593607438847847E-004  1.632969542587379E-004 
 1.673303890289291E-004  1.714634496379437E-004  1.756985968440015E-004  1.800383521860479E-004 
 1.844852994850425E-004  1.890420863823229E-004  1.937114259159670E-004  1.984960981360920E-004 
 2.033989517600528E-004  2.084229058685266E-004  2.135709516434781E-004  2.188461541490729E-004 
 2.242516541565549E-004  2.297906700142217E-004  2.354664995635723E-004  2.412825221027930E-004 
 2.472422003987277E-004  2.533490827485759E-004  2.596068050924814E-004  2.660190931782629E-004 
 2.725897647797669E-004  2.793227319698145E-004  2.862220034494632E-004  2.932916869346823E-004 
 3.005359916019531E-004  3.079592305945278E-004  3.155658235902252E-004  3.233602994328845E-004 
 3.313472988288952E-004  3.395315771099468E-004  3.479180070645630E-004  3.565115818390772E-004 
 3.653174179104905E-004  3.743407581328945E-004  3.835869748587548E-004  3.930615731377838E-004 
 4.027701939942853E-004  4.127186177859454E-004  4.229127676452411E-004  4.333587130060776E-004 
 4.440626732173395E-004  4.550310212458163E-004  4.662702874705804E-004  4.777871635711098E-004 
 4.895885065113007E-004  5.016813426221301E-004  5.140728717848946E-004  5.267704717180014E-004 
 5.397817023694373E-004  5.531143104179606E-004  5.667762338852665E-004  5.807756068622445E-004 
 5.951207643517465E-004  6.098202472312303E-004  6.248828073378432E-004  6.403174126790901E-004 
 6.561332527722616E-004  6.723397441157179E-004  6.889465357953970E-004  7.059635152295245E-004 
 7.234008140556955E-004  7.412688141628692E-004  7.595781538727135E-004  7.783397342733524E-004 
 7.975647257099066E-004  8.172645744349510E-004  8.374510094234762E-004  8.581360493562585E-004 
 8.793320097753458E-004  9.010515104167852E-004  9.233074827241038E-004  9.461131775473776E-004 
 9.694821730327859E-004  9.934283827067109E-004  1.017966063759571E-003  1.043109825534421E-003 
 1.068874638225118E-003  1.095275841789288E-003  1.122329155081492E-003  1.150050685211999E-003 
 1.178456937136723E-003  1.207564823484011E-003  1.237391674624054E-003  1.267955248987268E-003 
 1.299273743637268E-003  1.331365805105108E-003  1.364250540491201E-003  1.397947528841326E-003 
 1.432476832803705E-003  1.467859010573958E-003  1.504115128135144E-003  1.541266771800080E-003 
 1.579336061063540E-003  1.618345661771804E-003  1.658318799617579E-003  1.699279273968115E-003 
 1.741251472035131E-003  1.784260383394397E-003  1.828331614864236E-003  1.873491405751389E-003 
 1.919766643473445E-003  1.967184879567234E-003  2.015774346092557E-003  2.065563972441042E-003 
 2.116583402560328E-003  2.168863012603568E-003  2.222433929014894E-003  2.277328047061551E-003 
 2.333578049823982E-003  2.391217427654621E-003  2.450280498117741E-003  2.510802426421319E-003 
 2.572819246353766E-003  2.636367881738726E-003  2.701486168417593E-003  2.768212876777683E-003 
 2.836587734834038E-003  2.906651451884383E-003  2.978445742746025E-003  3.052013352591761E-003 
 3.127398082400918E-003  3.204644815035996E-003  3.283799541967373E-003  3.364909390654135E-003 
 3.448022652603208E-003  3.533188812122425E-003  3.620458575781935E-003  3.709883902603686E-003 
 3.801518034998046E-003  3.895415530462428E-003  3.991632294064859E-003  4.090225611728349E-003 
 4.191254184338038E-003  4.294778162691098E-003  4.400859183309670E-003  4.509560405137563E-003 
 4.620946547144377E-003  4.735083926858791E-003  4.852040499852208E-003  4.971885900198649E-003 
 5.094691481933577E-003  5.220530361537271E-003  5.349477461467157E-003  5.481609554765431E-003 
 5.617005310768097E-003  5.755745341944223E-003  5.897912251890015E-003  6.043590684511918E-003 
 6.192867374419221E-003  6.345831198567385E-003  6.502573229172127E-003  6.663186787932559E-003 
 6.827767501594612E-003  6.996413358883772E-003  7.169224768848394E-003  7.346304620638920E-003 
 7.527758344768693E-003  7.713693975884358E-003  7.904222217088855E-003  8.099456505850875E-003 
 8.299513081545458E-003  8.504511054659632E-003  8.714572477709716E-003  8.929822417909050E-003 
 9.150389031631338E-003  9.376403640712752E-003  9.608000810638432E-003  9.845318430661233E-003 
 1.008849779589856E-002  1.033768369145706E-002  1.059302447863623E-002  1.085467218325843E-002 
 1.112278258618491E-002  1.139751531606365E-002  1.167903394437040E-002  1.196750608279636E-002 
 1.226310348304159E-002  1.256600213907269E-002  1.287638239190765E-002  1.319442903698779E-002 
 1.352033143420149E-002  1.385428362062630E-002  1.419648442605557E-002  1.454713759137915E-002 
 1.490645188988620E-002  1.527464125156650E-002  1.565192489048009E-002  1.603852743527513E-002 
 1.643467906292642E-002  1.684061563578053E-002  1.725657884198442E-002  1.768281633938141E-002 
 1.811958190296401E-002  1.856713557596736E-002  1.902574382469376E-002  1.949567969716375E-002 
 1.997722298568367E-002  2.047066039342989E-002  2.097628570514765E-002  2.149439996206487E-002 
 2.202531164112785E-002  2.256933683866360E-002  2.312679945857862E-002  2.369803140520560E-002 
 2.428337278091419E-002  2.488317208860348E-002  2.549778643919080E-002  2.612758176424044E-002 
 2.677293303381504E-002  2.743422447975219E-002  2.811184982440112E-002  2.880621251506416E-002 
 2.951772596418679E-002  3.024681379550123E-002  3.099391009625051E-002  3.175945967562725E-002 
 3.254391832961483E-002  3.334775311235810E-002  3.417144261423183E-002  3.501547724680448E-002 
 3.588035953479998E-002  3.676660441530864E-002  3.767473954436687E-002  3.860530561111301E-002 
 3.955885665970725E-002  4.053596041920351E-002  4.153719864155607E-002  4.256316744800295E-002 
 4.361447768396946E-002  4.469175528276324E-002  4.579564163824834E-002  4.692679398671318E-002 
 4.808588579818380E-002  4.927360717739929E-002  5.049066527468165E-002  5.173778470696543E-002 
 5.301570798922688E-002  5.432519597656103E-002  5.566702831718275E-002  5.704200391661740E-002 
 5.845094141335724E-002  5.989467966626612E-002  6.137407825402329E-002  6.289001798689883E-002 
 6.444340143117544E-002  6.603515344652434E-002  6.766622173665456E-002  6.933757741354805E-002 
 7.105021557566395E-002  7.280515590038232E-002  7.460344325112224E-002  7.644614829942417E-002 
 7.833436816242145E-002  8.026922705603255E-002  8.225187696431586E-002  8.428349832533591E-002 
 8.636530073397027E-002  8.849852366209919E-002  9.068443719655325E-002  9.292434279530982E-002 
 9.521957406235292E-002  9.757149754169185E-002  9.998151353097309E-002  1.024510569151878E-001 
 1.049815980209922E-001  1.075746434921123E-001  1.102317371863668E-001  1.129544610948688E-001 
 1.157444362839135E-001  1.186033238601247E-001  1.215328259594707E-001  1.245346867606693E-001 
 1.276106935236590E-001  1.307626776536934E-001  1.339925157917397E-001  1.373021309317940E-001 
 1.406934935658113E-001  1.441686228568865E-001  1.477295878414517E-001  1.513785086611357E-001 
 1.551175578250657E-001  1.589489615033441E-001  1.628750008524774E-001  1.668980133735322E-001 
 1.710203943038587E-001  1.752445980431639E-001  1.795731396148303E-001  1.840085961633155E-001 
 1.885536084885510E-001  1.932108826182171E-001  1.979831914188875E-001  2.028733762469346E-001 
 2.078843486402328E-001  2.130190920516458E-001  2.182806636253216E-001  2.236721960168672E-001 
 2.291968992584842E-001  2.348580626701695E-001  2.406590568181220E-001  2.466033355215202E-001 
 2.526944379089010E-001  2.589359905252537E-001  2.653317094912266E-001  2.718854027156700E-001 
 2.786009721627512E-001  2.854824161751661E-001  2.925338318546890E-001  2.997594175015029E-001 
 3.071634751137970E-001  3.147504129490961E-001  3.225247481489562E-001  3.304911094282227E-001 
 3.386542398310950E-001  3.470189995549257E-001  3.555903688439247E-001  3.643734509543803E-001 
 3.733734751929573E-001  3.825958000302201E-001  3.920459162909669E-001  4.017294504233507E-001 
 4.116521678488133E-001  4.218199763946853E-001  4.322389298116254E-001  4.429152313779716E-001 
 4.538552375930053E-001  4.650654619615453E-001  4.765525788719918E-001  4.883234275701412E-001 
 5.003850162311124E-001  5.127445261320446E-001  5.254093159274942E-001  5.383869260308980E-001 
 5.516850831038599E-001  5.653117046565298E-001  5.792749037615396E-001  5.935829938844489E-001 
 6.082444938334085E-001  6.232681328310913E-001  6.386628557120155E-001  6.544378282481116E-001 
 6.706024426058310E-001  6.871663229381850E-001  7.041393311147656E-001  7.215315725933094E-001 
 7.393534024363689E-001  7.576154314765287E-001  7.763285326340001E-001  7.955038473900579E-001 
 8.151527924206124E-001  8.352870663933842E-001  8.559186569333150E-001  8.770598477595593E-001 
 8.987232259992279E-001  9.209216896813993E-001  9.436684554165435E-001  9.669770662653165E-001 
 9.908613998020867E-001  1.015335676377177E+000  1.040414467583697E+000  1.066112704933025E+000 
 1.092445688744874E+000  1.119429097256853E+000  1.147078995959100E+000  1.175411847159307E+000 
 1.204444519784135E+000  1.234194299422811E+000  1.264678898618541E+000  1.295916467414433E+000 
 1.327925604159570E+000  1.360725366582292E+000  1.394335283136874E+000  1.428775364630366E+000 
 1.464066116136735E+000  1.500228549205310E+000  1.537284194370691E+000  1.575255113971626E+000 
 1.614163915286738E+000  1.654033763994307E+000  1.694888397964987E+000  1.736752141394714E+000 
 1.779649919287156E+000  1.823607272293556E+000  1.868650371919206E+000
    </PP_RAB>
  </PP_MESH>
  <PP_LOCAL type="real" size="539" columns="4">
-3.693982352028600E+000 -3.693982370940800E+000 -3.693982389392600E+000 -3.693982407395200E+000 
-3.693982424959200E+000 -3.693982442095000E+000 -3.693982458812400E+000 -3.693982475121400E+000 
-3.693982491031600E+000 -3.693982506552200E+000 -3.693982521692600E+000 -3.693982536461200E+000 
-3.693982550867000E+000 -3.693982564918000E+000 -3.693982578623000E+000 -3.693982591989400E+000 
-3.693982605025000E+000 -3.693982617737800E+000 -3.693982630134600E+000 -3.693982642223000E+000 
-3.693982654009600E+000 -3.693982665501400E+000 -3.693982676704800E+000 -3.693982687626400E+000 
-3.693982698272000E+000 -3.693982708648000E+000 -3.693982718760200E+000 -3.693982728614000E+000 
-3.693982738215200E+000 -3.693982747569000E+000 -3.693982756680600E+000 -3.693982765555000E+000 
-3.693982774197200E+000 -3.693982782611400E+000 -3.693982790802600E+000 -3.693982798775000E+000 
-3.693982806532600E+000 -3.693982814079800E+000 -3.693982821420400E+000 -3.693982828558000E+000 
-3.693982835496200E+000 -3.693982842238600E+000 -3.693982848788400E+000 -3.693982855148800E+000 
-3.693982861322600E+000 -3.693982867312800E+000 -3.693982873122000E+000 -3.693982878752800E+000 
-3.693982884207600E+000 -3.693982889488600E+000 -3.693982894597600E+000 -3.693982899537000E+000 
-3.693982904308400E+000 -3.693982908913000E+000 -3.693982913352800E+000 -3.693982917628800E+000 
-3.693982921742000E+000 -3.693982925693600E+000 -3.693982929484200E+000 -3.693982933114400E+000 