<UPF version="2.0.1">
  <PP_INFO>
    Generated using FHI98PP, converted with fhi2upf.x v.5.0.1
    Author: Abinit web site
    Generation date: 10-Jul-2012, PG
    Pseudopotential type: SL
    Element: Nd
    Functional: SLA-PW

    Suggested minimum cutoff for wavefunctions:   0. Ry
    Suggested minimum cutoff for charge density:   0. Ry
    The Pseudo was generated with a Non-Relativistic Calculation
    L component and cutoff radius for Local Potential:  0   0.0000

    Valence configuration: 
    nl pn  l   occ       Rcut    Rcut US       E pseu
    6s  6  0  2.00      0.000      0.000     0.000000
    6p  6  1  0.00      0.000      0.000     0.000000
    5d  5  2  0.00      0.000      0.000     0.000000
    4f  4  3  4.00      0.000      0.000     0.000000

    Generation configuration: not available.
    Comment:
    neodymium, fhi98PP : Trouiller-Martins-type, LDA Ceperley/Alder Perdew/Wang (199
  </PP_INFO>
  <!--                               -->
  <!-- END OF HUMAN READABLE SECTION -->
  <!--                               -->
  <PP_HEADER generated="Generated using FHI98PP, converted with fhi2upf.x v.5.0.1"
             author="Abinit web site"
             date="10-Jul-2012, PG"
             comment="neodymium, fhi98PP : Trouiller-Martins-type, LDA Ceperley/Alder Perdew/Wang (199"
             element="Nd"
             pseudo_type="SL"
             relativistic="no"
             is_ultrasoft="F"
             is_paw="F"
             is_coulomb="F"
             has_so="F"
             has_wfc="F"
             has_gipaw="F"
             paw_as_gipaw="F"
             core_correction="F"
             functional="SLA-PW"
             z_valence="6.000000000000000E+000"
             total_psenergy="0.000000000000000E+000"
             wfc_cutoff="0.000000000000000E+000"
             rho_cutoff="0.000000000000000E+000"
             l_max="3"
             l_max_rho="0"
             l_local="0"
             mesh_size="555"
             number_of_wfc="4"
             number_of_proj="3"/>
  <PP_MESH dx="2.439988682353512E-002" mesh="555" xmin="-5.075173815233795E+000" rmax="7.732512404574599E+001"
zmesh="6.000000000000000E+001">
    <PP_R type="real" size="555" columns="4">
 1.041666666666700E-004  1.067395833333300E-004  1.093760510416700E-004  1.120776395024000E-004 
 1.148459571981100E-004  1.176826523409000E-004  1.205894138537200E-004  1.235679723759100E-004 
 1.266201012935900E-004  1.297476177955400E-004  1.329523839550900E-004  1.362363078387800E-004 
 1.396013446424000E-004  1.430494978550700E-004  1.465828204520900E-004  1.502034161172500E-004 
 1.539134404953500E-004  1.577151024755900E-004  1.616106655067300E-004  1.656024489447500E-004 
 1.696928294336800E-004  1.738842423207000E-004  1.781791831060200E-004  1.825802089287400E-004 
 1.870899400892800E-004  1.917110616094800E-004  1.964463248312300E-004  2.012985490545700E-004 
 2.062706232162100E-004  2.113655076096500E-004  2.165862356476100E-004  2.219359156681100E-004 
 2.274177327851100E-004  2.330349507849000E-004  2.387909140692900E-004  2.446890496468000E-004 
 2.507328691730800E-004  2.569259710416500E-004  2.632720425263800E-004  2.697748619767800E-004 
 2.764383010676100E-004  2.832663271039800E-004  2.902630053834500E-004  2.974325016164200E-004 
 3.047790844063500E-004  3.123071277911800E-004  3.200211138476200E-004  3.279256353596600E-004 
 3.360253985530400E-004  3.443252258973000E-004  3.528300589769700E-004  3.615449614337000E-004 
 3.704751219811100E-004  3.796258574940400E-004  3.890026161741500E-004  3.986109807936500E-004 
 4.084566720192500E-004  4.185455518181300E-004  4.288836269480300E-004  4.394770525336500E-004 
 4.503321357312300E-004  4.614553394837900E-004  4.728532863690400E-004  4.845327625423600E-004 
 4.965007217771600E-004  5.087642896050500E-004  5.213307675583000E-004  5.342076375169900E-004 
 5.474025661636600E-004  5.609234095479000E-004  5.747782177637300E-004  5.889752397424900E-004 
 6.035229281641300E-004  6.184299444897900E-004  6.337051641186900E-004  6.493576816724200E-004 
 6.653968164097300E-004  6.818321177750500E-004  6.986733710840900E-004  7.159306033498700E-004 
 7.336140892526100E-004  7.517343572571500E-004  7.703021958814000E-004  7.893286601196700E-004 
 8.088250780246300E-004  8.288030574518300E-004  8.492744929708900E-004  8.702515729472800E-004 
 8.917467867990700E-004  9.137729324330100E-004  9.363431238641100E-004  9.594707990235500E-004 
 9.831697277594301E-004  1.007454020035100E-003  1.032338134330000E-003  1.057836886247900E-003 
 1.083965457338200E-003  1.110739404134500E-003  1.138174667416600E-003  1.166287581701800E-003 
 1.195094884969800E-003  1.224613728628600E-003  1.254861687725700E-003  1.285856771412500E-003 
 1.317617433666400E-003  1.350162584278000E-003  1.383511600109600E-003  1.417684336632400E-003 
 1.452701139747200E-003  1.488582857898900E-003  1.525350854489000E-003  1.563027020594900E-003 
 1.601633788003600E-003  1.641194142567300E-003  1.681731637888700E-003  1.723270409344600E-003 
 1.765835188455400E-003  1.809451317610200E-003  1.854144765155200E-003  1.899942140854500E-003 
 1.946870711733600E-003  1.994958418313500E-003  2.044233891245800E-003  2.094726468359600E-003 
 2.146466212128000E-003  2.199483927567600E-003  2.253811180578500E-003  2.309480316738800E-003 
 2.366524480562300E-003  2.424977635232200E-003  2.484874582822400E-003  2.546250985018100E-003 
 2.609143384348000E-003  2.673589225941400E-003  2.739626879822200E-003  2.807295663753800E-003 
 2.876635866648500E-003  2.947688772554700E-003  3.020496685236800E-003  3.095102953362200E-003 
 3.171551996310200E-003  3.249889330619100E-003  3.330161597085400E-003  3.412416588533400E-003 
 3.496703278270200E-003  3.583071849243500E-003  3.671573723919800E-003  3.762261594900600E-003 
 3.855189456294600E-003  3.950412635865100E-003  4.047987827971000E-003  4.147973127321900E-003 
 4.250428063566700E-003  4.355413636736800E-003  4.462992353564200E-003  4.573228264697200E-003 
 4.686187002835300E-003  4.801935821805300E-003  4.920543636603900E-003  5.042081064428000E-003 
 5.166620466719400E-003  5.294235992247300E-003  5.425003621255800E-003  5.559001210700900E-003 
 5.696308540605200E-003  5.837007361558100E-003  5.981181443388600E-003  6.128916625040300E-003 
 6.280300865678800E-003  6.435424297061100E-003  6.594379277198500E-003  6.757260445345300E-003 
 6.924164778345300E-003  7.095191648370400E-003  7.270442882085200E-003  7.450022821272700E-003 
 7.634038384958100E-003  7.822599133066601E-003  8.015817331653300E-003  8.213808019745200E-003 
 8.416689077832900E-003  8.624581298055300E-003  8.837608456117300E-003  9.055897384983400E-003 
 9.279578050392499E-003  9.508783628237200E-003  9.743650583854700E-003  9.984318753275901E-003 
 1.023093142648200E-002  1.048363543271600E-002  1.074258122790400E-002  1.100792298423300E-002 
 1.127981868194400E-002  1.155843020338800E-002  1.184392342941100E-002  1.213646833811800E-002 
 1.243623910606900E-002  1.274341421198900E-002  1.305817654302500E-002  1.338071350363800E-002 
 1.371121712717800E-002  1.404988419021900E-002  1.439691632971800E-002  1.475252016306200E-002 
 1.511690741108900E-002  1.549029502414300E-002  1.587290531124000E-002  1.626496607242700E-002 
 1.666671073441600E-002  1.707837848955600E-002  1.750021443824800E-002  1.793246973487300E-002 
 1.837540173732400E-002  1.882927416023600E-002  1.929435723199400E-002  1.977092785562400E-002 
 2.025926977365800E-002  2.075967373706800E-002  2.127243767837300E-002  2.179786688902900E-002 
 2.233627420118800E-002  2.288798017395700E-002  2.345331328425400E-002  2.403261012237500E-002 
 2.462621559239800E-002  2.523448311753000E-002  2.585777485053300E-002  2.649646188934100E-002 
 2.715092449800800E-002  2.782155233310900E-002  2.850874467573700E-002  2.921291066922700E-002 
 2.993446956275700E-002  3.067385096095700E-002  3.143149507969300E-002  3.220785300816100E-002 
 3.300338697746300E-002  3.381857063580600E-002  3.465388933051100E-002  3.550984039697400E-002 
 3.638693345478000E-002  3.728569071111300E-002  3.820664727167700E-002  3.915035145928800E-002 
 4.011736514033200E-002  4.110826405929800E-002  4.212363818156300E-002  4.316409204464800E-002 
 4.423024511815000E-002  4.532273217256900E-002  4.644220365723100E-002  4.758932608756500E-002 
 4.876478244192800E-002  4.996927256824300E-002  5.120351360067900E-002  5.246824038661500E-002 
 5.376420592416500E-002  5.509218181049200E-002  5.645295870121100E-002  5.784734678113100E-002 
 5.927617624662500E-002  6.074029779991600E-002  6.224058315557400E-002  6.377792555951700E-002 
 6.535324032083700E-002  6.696746535676200E-002  6.862156175107401E-002  7.031651432632501E-002 
 7.205333223018499E-002  7.383304953627100E-002  7.565672585981700E-002  7.752544698855400E-002 
 7.944032552917200E-002  8.140250156974201E-002  8.341314335851500E-002  8.547344799947000E-002 
 8.758464216505700E-002  8.974798282653400E-002  9.196475800234900E-002  9.423628752500700E-002 
 9.656392382687499E-002  9.894905274539900E-002  1.013930943482100E-001  1.038975037786100E-001 
 1.064637721219400E-001  1.090934272933500E-001  1.117880349475000E-001  1.145491994107000E-001 
 1.173785646361500E-001  1.202778151826600E-001  1.232486772176700E-001  1.262929195449500E-001 
 1.294123546577100E-001  1.326088398177500E-001  1.358842781612500E-001  1.392406198318400E-001 
 1.426798631416800E-001  1.462040557612800E-001  1.498152959385900E-001  1.535157337482700E-001 
 1.573075723718500E-001  1.611930694094400E-001  1.651745382238500E-001  1.692543493179800E-001 
 1.734349317461300E-001  1.777187745602600E-001  1.821084282919000E-001  1.866065064707100E-001 
 1.912156871805400E-001  1.959387146539000E-001  2.007784009058500E-001  2.057376274082200E-001 
 2.108193468052000E-001  2.160265846712900E-001  2.213624413126700E-001  2.268300936131000E-001 
 2.324327969253400E-001  2.381738870094000E-001  2.440567820185300E-001  2.500849845343900E-001 
 2.562620836523900E-001  2.625917571186000E-001  2.690777735194300E-001  2.757239945253600E-001 
 2.825343771901300E-001  2.895129763067300E-001  2.966639468215100E-001  3.039915463080000E-001 
 3.115001375018100E-001  3.191941908981000E-001  3.270782874132800E-001  3.351571211123900E-001 
 3.434355020038700E-001  3.519183589033600E-001  3.606107423682800E-001  3.695178277047700E-001 
 3.786449180490800E-001  3.879974475248900E-001  3.975809844787600E-001  4.074012347953800E-001 
 4.174640452948300E-001  4.277754072136100E-001  4.383414597717900E-001  4.491684938281500E-001 
 4.602629556257100E-001  4.716314506296600E-001  4.832807474602100E-001  4.952177819224800E-001 
 5.074496611359700E-001  5.199836677660200E-001  5.328272643598500E-001  5.459880977895299E-001 
 5.594740038049300E-001  5.732930116989200E-001  5.874533490878801E-001  6.019634468103500E-001 
 6.168319439465700E-001  6.320676929620500E-001  6.476797649782100E-001  6.636774551731700E-001 
 6.800702883159500E-001  6.968680244373500E-001  7.140806646409500E-001  7.317184570575900E-001 
 7.497919029469100E-001  7.683117629497001E-001  7.872890634945500E-001  8.067351033628700E-001 
 8.266614604159300E-001  8.470799984882100E-001  8.680028744508600E-001  8.894425454497999E-001 
 9.114117763224100E-001  9.339236471975700E-001  9.569915612833499E-001  9.806292528470500E-001 
 1.004850795392400E+000  1.029670610038600E+000  1.055103474106500E+000  1.081164529917000E+000 
 1.107869293805900E+000  1.135233665362900E+000  1.163273936897400E+000  1.192006803138700E+000 
 1.221449371176300E+000  1.251619170644300E+000  1.282534164159200E+000  1.314212758014000E+000 
 1.346673813136900E+000  1.379936656321400E+000  1.414021091732500E+000  1.448947412698300E+000 
 1.484736413792000E+000  1.521409403212600E+000  1.558988215472000E+000  1.597495224394100E+000 
 1.636953356436700E+000  1.677386104340700E+000  1.718817541117900E+000  1.761272334383500E+000 
 1.804775761042800E+000  1.849353722340500E+000  1.895032759282300E+000  1.941840068436600E+000 
 1.989803518127000E+000  2.038951665024700E+000  2.089313771150800E+000  2.140919821298300E+000 
 2.193800540884300E+000  2.247987414244200E+000  2.303512703376000E+000  2.360409467149400E+000 
 2.418711580988000E+000  2.478453757038400E+000  2.539671564837200E+000  2.602401452488700E+000 
 2.666680768365200E+000  2.732547783343800E+000  2.800041713592400E+000  2.869202743918100E+000 
 2.940072051692900E+000  3.012691831369700E+000  3.087105319604500E+000  3.163356820998800E+000 
 3.241491734477400E+000  3.321556580319000E+000  3.403599027852900E+000  3.487667923840900E+000 
 3.573813321559700E+000  3.662086510602300E+000  3.752540047414100E+000  3.845227786585300E+000 
 3.940204912913900E+000  4.037527974262900E+000  4.137254915227200E+000  4.239445111633300E+000 
 4.344159405890700E+000  4.451460143216100E+000  4.561411208753600E+000  4.674078065609800E+000 
 4.789527793830400E+000  4.907829130338000E+000  5.029052509857300E+000  5.153270106850800E+000 
 5.280555878490000E+000  5.410985608688700E+000  5.544636953223300E+000  5.681589485967900E+000 
 5.821924746271300E+000  5.965726287504200E+000  6.113079726805600E+000  6.264072796057700E+000 
 6.418795394120300E+000  6.577339640355100E+000  6.739799929471900E+000  6.906272987729800E+000 
 7.076857930526800E+000  7.251656321410800E+000  7.430772232549600E+000  7.614312306693600E+000 
 7.802385820668900E+000  7.995104750439400E+000  8.192583837775301E+000  8.394940658568300E+000 
 8.602295692835000E+000  8.814772396447999E+000  9.032497274640299E+000  9.255599957323900E+000 
 9.484213276269800E+000  9.718473344193599E+000  9.958519635795200E+000  1.020449507079900E+001 
 1.045654609904800E+001  1.071482278769500E+001  1.097947891055100E+001  1.125067203964100E+001 
 1.152856363902000E+001  1.181331916090400E+001  1.210510814417900E+001  1.240410431534000E+001 
 1.271048569192900E+001  1.302443468851900E+001  1.334613822532600E+001  1.367578783949100E+001 
 1.401357979912700E+001  1.435971522016500E+001  1.471440018610300E+001  1.507784587070000E+001 
 1.545026866370600E+001  1.583189029970000E+001  1.622293799010200E+001  1.662364455845800E+001 
 1.703424857905200E+001  1.745499451895400E+001  1.788613288357300E+001  1.832792036579700E+001 
 1.878061999883200E+001  1.924450131280300E+001  1.971984049522900E+001  2.020692055546100E+001 
 2.070603149318100E+001  2.121747047106300E+001  2.174154199169800E+001  2.227855807889300E+001 
 2.282883846344200E+001  2.339271077348900E+001  2.397051072959400E+001  2.456258234461500E+001 
 2.516927812852700E+001  2.579095929830200E+001  2.642799599297000E+001  2.708076749399600E+001 
 2.774966245109800E+001  2.843507911364000E+001  2.913742556774700E+001  2.985711997927000E+001 
 3.059459084275800E+001  3.135027723657400E+001  3.212462908431700E+001  3.291810742270000E+001 
 3.373118467604100E+001  3.456434493753900E+001  3.541808425749600E+001  3.629291093865600E+001 
 3.718934583884100E+001  3.810792268106100E+001  3.904918837128300E+001  4.001370332405300E+001 
 4.100204179615800E+001  4.201479222852300E+001  4.305255759656700E+001  4.411595576920200E+001 
 4.520561987670200E+001  4.632219868765600E+001  4.746635699524100E+001  4.863877601302400E+001 
 4.984015378054500E+001  5.107120557892500E+001  5.233266435672400E+001  5.362528116633500E+001 
 5.494982561114400E+001  5.630708630373900E+001  5.769787133544200E+001  5.912300875742700E+001 
 6.058334707373500E+001  6.207975574645700E+001  6.361312571339400E+001  6.518436991851500E+001 
 6.679442385550200E+001  6.844424612473300E+001  7.013481900401401E+001  7.186714903341300E+001 
 7.364226761453800E+001  7.546123162461799E+001  7.732512404574599E+001
    </PP_R>
    <PP_RAB type="real" size="555" columns="4">
 2.541654877451656E-006  2.604433752924548E-006  2.668763266621949E-006  2.734681719307529E-006 
 2.802228357774443E-006  2.871443398211390E-006  2.942368050147206E-006  3.015044540985919E-006 
 3.089516141148149E-006  3.165827189834467E-006  3.244023121423383E-006  3.324150492522523E-006 
 3.406257009687881E-006  3.490391557827238E-006  3.576604229305565E-006  3.664946353769251E-006 
 3.755470528707448E-006  3.848230650766640E-006  3.943281947840404E-006  4.040681011952153E-006 
 4.140485832947242E-006  4.242755833021236E-006  4.347551902096829E-006  4.454936434078653E-006 
 4.564973364000399E-006  4.677728206091081E-006  4.793268092781429E-006  4.911661814673341E-006 
 5.032979861495580E-006  5.157294464074512E-006  5.284679637337192E-006  5.415211224379519E-006 
 5.548966941621637E-006  5.686026425079637E-006  5.826471277779176E-006  5.970385118340286E-006 
 6.117853630763390E-006  6.268964615443122E-006  6.423808041444597E-006  6.582476100068241E-006 
 6.745063259740013E-006  6.911666322255590E-006  7.082384480415346E-006  7.257319377081575E-006 
 7.436575165695598E-006  7.620258572288112E-006  7.808478959023576E-006  8.001348389311551E-006 
 8.198981694527459E-006  8.401496542382284E-006  8.609013506979289E-006  8.821656140601650E-006 
 9.039551047274452E-006  9.262827958142048E-006  9.491619808708333E-006  9.726062817983393E-006 
 9.966296569587504E-006  1.021246409485643E-005  1.046471195799919E-005  1.072319034336186E-005 
 1.098805314484287E-005  1.125945805752045E-005  1.153756667154122E-005  1.182254456832840E-005 
 1.211456141916620E-005  1.241379108621947E-005  1.272041172604921E-005  1.303460589568263E-005 
 1.335656066130600E-005  1.368646770964020E-005  1.402452346206824E-005  1.437092919158122E-005 
 1.472589114261329E-005  1.508962065383598E-005  1.546233428398579E-005  1.584425394080019E-005 
 1.623560701313799E-005  1.663662650636249E-005  1.704755118106955E-005  1.746862569524204E-005 
 1.790010074991448E-005  1.834223323843738E-005  1.879528639942674E-005  1.925952997349257E-005 
 1.973524036383794E-005  2.022270080082453E-005  2.072220151060489E-005  2.123403988791705E-005 
 2.175852067314841E-005  2.229595613377525E-005  2.284666625027961E-005  2.341097890666143E-005 
 2.398923008565593E-005  2.458176406877192E-005  2.518893364127140E-005  2.581110030220956E-005 
 2.644863447967357E-005  2.710191575132264E-005  2.777133307037976E-005  2.845728499721839E-005 
 2.916017993664885E-005  2.988043638108519E-005  3.061848315969735E-005  3.137475969374127E-005 
 3.214971625817696E-005  3.294381424975489E-005  3.375752646172222E-005  3.459133736532903E-005 
 3.544574339825216E-005  3.632125326018762E-005  3.721838821571419E-005  3.813768240464285E-005 
 3.907968316003768E-005  4.004495133409089E-005  4.103406163204263E-005  4.204760295435528E-005 
 4.308617874732757E-005  4.415040736238538E-005  4.524092242423698E-005  4.635837320811483E-005 
 4.750342502635511E-005  4.867675962450804E-005  4.987907558723233E-005  5.111108875423767E-005 
 5.237353264646533E-005  5.366715890283396E-005  5.499273772773348E-005  5.635105834960877E-005 
 5.774292949084537E-005  5.916917984926952E-005  6.063065859154561E-005  6.212823585875646E-005 
 6.366280328446660E-005  6.523527452559302E-005  6.684658580637634E-005  6.849769647579363E-005 
 7.018958957874527E-005  7.192327244133984E-005  7.369977727064090E-005  7.552016176922698E-005 
 7.738550976492577E-005  7.929693185612035E-005  8.125556607296673E-005  8.326257855496877E-005 
 8.531916424527712E-005  8.742654760213609E-005  8.958598332790851E-005  9.179875711610738E-005 
 9.406618641687414E-005  9.638962122137149E-005  9.877044486554016E-005  1.012100748537194E-004 
 1.037099637026050E-004  1.062715998060594E-004  1.088965083212691E-004  1.115862520768036E-004 
 1.143424325031026E-004  1.171666905859284E-004  1.200607078434011E-004  1.230262073271327E-004 
 1.260649546481136E-004  1.291787590279203E-004  1.323694743759097E-004  1.356390003929967E-004 
 1.389892837027034E-004  1.424223190101590E-004  1.459401502897103E-004  1.495448720018662E-004 
 1.532386303403124E-004  1.570236245097189E-004  1.609021080351087E-004  1.648763901035759E-004 
 1.689488369391335E-004  1.731218732115294E-004  1.773979834798554E-004  1.817797136718077E-004 
 1.862696725995005E-004  1.908705335127090E-004  1.955850356904718E-004  2.004159860720280E-004 
 2.053662609280069E-004  2.104388075729270E-004  2.156366461199791E-004  2.209628712791426E-004 
 2.264206541997377E-004  2.320132443584713E-004  2.377439714941266E-004  2.436162475900313E-004 
 2.496335689055095E-004  2.557995180574730E-004  2.621177661534906E-004  2.685920749774762E-004 
 2.752262992294307E-004  2.820243888203972E-004  2.889903912242444E-004  2.961284538874966E-004 
 3.034428266985052E-004  3.109378645179606E-004  3.186180297715511E-004  3.264878951069153E-004 
 3.345521461160596E-004  3.428155841251190E-004  3.512831290530238E-004  3.599598223406327E-004 
 3.688508299524309E-004  3.779614454522584E-004  3.872970931549455E-004  3.968633313558574E-004 
 4.066658556403484E-004  4.167105022746631E-004  4.270032516808465E-004  4.375502319973700E-004 
 4.483577227276962E-004  4.594321584790728E-004  4.707801327935099E-004  4.824084020735035E-004 
 4.943238896047211E-004  5.065336896779736E-004  5.190450718130054E-004  5.318654850867911E-004 
 5.450025625684346E-004  5.584641258638665E-004  5.722581897727103E-004  5.863929670600945E-004 
 6.008768733464871E-004  6.157185321181397E-004  6.309267798614580E-004  6.465106713240319E-004 
 6.624794849057423E-004  6.788427281829192E-004  6.956101435690422E-004  7.127917141151803E-004 
 7.303976694538276E-004  7.484384918893349E-004  7.669249226390102E-004  7.858679682281836E-004 
 8.052789070434301E-004  8.251692960473946E-004  8.455509776597797E-004  8.664360868079612E-004 
 8.878370581521358E-004  9.097666334884919E-004  9.322378693356456E-004  9.552641447082503E-004 
 9.788591690825339E-004  1.003036990558868E-003  1.027812004225680E-003  1.053198960730064E-003 
 1.079212975060077E-003  1.105869535544078E-003  1.133184513072005E-003  1.161174170544893E-003 
 1.189855172557356E-003  1.219244595319507E-003  1.249359936823909E-003  1.280219127263441E-003 
 1.311840539706862E-003  1.344243001037625E-003  1.377445803163251E-003  1.411468714501385E-003 
 1.446331991749571E-003  1.482056391945770E-003  1.518663184826832E-003  1.556174165492063E-003 
 1.594611667379715E-003  1.633998575564002E-003  1.674358340380432E-003  1.715714991387816E-003 
 1.758093151675089E-003  1.801518052521475E-003  1.846015548418758E-003  1.891612132464689E-003 
 1.938334952136585E-003  1.986211825454345E-003  2.035271257543076E-003  2.085542457604382E-003 
 2.137055356307213E-003  2.189840623608003E-003  2.243929687011112E-003  2.299354750280285E-003 
 2.356148812612216E-003  2.414345688283743E-003  2.473980026784343E-003  2.535087333445896E-003 
 2.597703990581970E-003  2.661867279149297E-003  2.727615400944389E-003  2.794987501347636E-003 
 2.864023692631062E-003  2.934765077838978E-003  3.007253775261559E-003  3.081532943510607E-003 
 3.157646807215312E-003  3.235640683353398E-003  3.315561008232265E-003  3.397455365135776E-003 
 3.481372512654472E-003  3.567362413717050E-003  3.655476265336017E-003  3.745766529089739E-003 
 3.838286962358200E-003  3.933092650328577E-003  4.030240038791616E-003  4.129786967749791E-003 
 4.231792705853110E-003  4.336317985687697E-003  4.443425039934221E-003  4.553177638420599E-003 
 4.665641126089672E-003  4.780882461904103E-003  4.898970258713101E-003  5.019974824103205E-003 
 5.143968202258480E-003  5.271024216854303E-003  5.401218515010583E-003  5.534628612331517E-003 
 5.671333939056018E-003  5.811415887350802E-003  5.954957859768313E-003  6.102045318904647E-003 
 6.252765838281606E-003  6.407209154487063E-003  6.565467220602908E-003  6.727634260951802E-003 
 6.893806827197155E-003  7.064083855829018E-003  7.238566727068086E-003  7.417359325226637E-003 
 7.600568100559793E-003  7.788302132643505E-003  7.980673195319723E-003  8.177795823244169E-003 
 8.379787380078397E-003  8.586768128366198E-003  8.798861301137013E-003  9.016193175274939E-003 
 9.238893146704284E-003  9.467093807427824E-003  9.700931024471417E-003  9.940544020775731E-003 
 1.018607545808899E-002  1.043767152190373E-002  1.069548200849485E-002  1.095966041410459E-002 
 1.123036402633309E-002  1.150775401778340E-002  1.179199554202258E-002  1.208325783191061E-002 
 1.238171430035892E-002  1.268754264357758E-002  1.300092494687417E-002  1.332204779306176E-002 
 1.365110237355035E-002  1.398828460217724E-002  1.433379523185094E-002  1.468783997407764E-002 
 1.505062962143747E-002  1.542238017308697E-002  1.580331296336215E-002  1.619365479355715E-002 
 1.659363806695808E-002  1.700350092721185E-002  1.742348740011392E-002  1.785384753889694E-002 
 1.829483757310763E-002  1.874672006116343E-002  1.920976404667397E-002  1.968424521862694E-002 
 2.017044607552695E-002  2.066865609359263E-002  2.117917189910415E-002  2.170229744501211E-002 
 2.223834419190391E-002  2.278763129344385E-002  2.335048578639191E-002  2.392724278531583E-002 
 2.451824568211381E-002  2.512384635046221E-002  2.574440535531732E-002  2.638029216759535E-002 
 2.703188538413374E-002  2.769957295312171E-002  2.838375240506470E-002  2.908483108946819E-002 
 2.980322641737986E-002  3.053936610988781E-002  3.129368845280170E-002  3.206664255758754E-002 
 3.285868862875885E-002  3.367029823788964E-002  3.450195460436457E-002  3.535415288309256E-002 
 3.622740045930621E-002  3.712221725064955E-002  3.803913601674179E-002  3.897870267635389E-002 
 3.994147663246143E-002  4.092803110528355E-002  4.193895347358369E-002  4.297484562438091E-002 
 4.403632431130378E-002  4.512402152179160E-002  4.623858485337960E-002  4.738067789925873E-002 
 4.855098064337082E-002  4.975018986526118E-002  5.097901955493288E-002  5.223820133794155E-002 
 5.352848491098705E-002  5.485063848828985E-002  5.620544925894983E-002  5.759372385564620E-002 
 5.901628883488090E-002  6.047399116910238E-002  6.196769875097802E-002  6.349830091012769E-002 
 6.506670894260855E-002  6.667385665349049E-002  6.832070091283191E-002  7.000822222537806E-002 
 7.173742531434546E-002  7.350933971960943E-002  7.532502041068302E-002  7.718554841482857E-002 
 7.909203146067312E-002  8.104560463775194E-002  8.304743107230492E-002  8.509870261979166E-002 
 8.720064057449881E-002  8.935449639669077E-002  9.156155245768716E-002  9.382312280339378E-002 
 9.614055393663622E-002  9.851522561887180E-002  1.009485516916581E-001  1.034419809184417E-001 
 1.059969978471287E-001  1.086151236939503E-001  1.112979172491924E-001  1.140469758052471E-001 
 1.168639361076376E-001  1.197504753294960E-001  1.227083120701334E-001  1.257392073782663E-001 
 1.288449658005091E-001  1.320274364557816E-001  1.352885141362391E-001  1.386301404354039E-001 
 1.420543049041582E-001  1.455630462352908E-001  1.491584534773036E-001  1.528426672781931E-001 
 1.566178811599638E-001  1.604863428246156E-001  1.644503554923843E-001  1.685122792730449E-001 
 1.726745325710909E-001  1.769395935255965E-001  1.813100014856776E-001  1.857883585223745E-001 
 1.903773309778763E-001  1.950796510530294E-001  1.998981184340403E-001  2.048356019593599E-001 
 2.098950413277576E-001  2.150794488485527E-001  2.203919112351127E-001  2.258355914426197E-001 
 2.314137305512524E-001  2.371296496958667E-001  2.429867520433551E-001  2.489885248188176E-001 
 2.551385413818488E-001  2.614404633539931E-001  2.678980427988351E-001  2.745151244559514E-001 
 2.812956480300102E-001  2.882436505363565E-001  2.953632687046209E-001  3.026587414416196E-001 
 3.101344123552301E-001  3.177947323403885E-001  3.256442622292103E-001  3.336876755062583E-001 
 3.419297610912768E-001  3.503754261902207E-001  3.590296992171173E-001  3.678977327877864E-001 
 3.769848067876376E-001  3.862963315153035E-001  3.958378509037171E-001  4.056150458210507E-001 
 4.156337374528328E-001  4.258998907679035E-001  4.364196180698911E-001  4.471991826362112E-001 
 4.582450024473211E-001  4.695636540077662E-001  4.811618762617524E-001  4.930465746054138E-001 
 5.052248249981703E-001  5.177038781756356E-001  5.304911639665676E-001  5.435942957165432E-001 
 5.570210748207503E-001  5.707794953688223E-001  5.848777489044279E-001  5.993242293023680E-001 
 6.141275377661367E-001  6.292964879489695E-001  6.448401112013077E-001  6.607676619479712E-001 
 6.770886231980934E-001  6.938127121910834E-001  7.109498861822054E-001  7.285103483708972E-001 
 7.465045539756592E-001  7.649432164588550E-001  7.838373139053795E-001  8.031980955588514E-001 
 8.230370885191627E-001  8.433661046055807E-001  8.641972473893333E-001  8.855429193998462E-001 
 9.074158295090272E-001  9.298290004979154E-001  9.527957768102090E-001  9.763298324974042E-001 
 1.000445179360112E+000  1.025156175290304E+000  1.050477532819962E+000  1.076424327880610E+000 
 1.103012008779279E+000  1.130256405396113E+000  1.158173738609395E+000  1.186780629953060E+000 
 1.216094111512884E+000  1.246131636067266E+000  1.276911087478116E+000  1.308450791338823E+000 
 1.340769525884905E+000  1.373886533174256E+000  1.407821530543676E+000  1.442594722348095E+000 
 1.478226811990082E+000  1.514739014246255E+000  1.552153067898125E+000  1.590491248675213E+000 
 1.629776382517483E+000  1.670031859165668E+000  1.711281646087062E+000  1.753550302745409E+000 
 1.796862995223213E+000  1.841245511205248E+000  1.886724275332016E+000
    </PP_RAB>
  </PP_MESH>
  <PP_LOCAL type="real" size="555" columns="4">
-8.330995351971801E+000 -8.331042938753599E+000 -8.331089378475200E+000 -8.331134698786199E+000 
-8.331178926669599E+000 -8.331222088457800E+000 -8.331264209849000E+000 -8.331305315921400E+000 
-8.331345431149000E+000 -8.331384579415801E+000 -8.331422784030000E+000 -8.331460067738201E+000 
-8.331496452738600E+000 -8.331531960694001E+000 -8.331566612745601E+000 -8.331600429524601E+000 
-8.331633431165001E+000 -8.331665637315600E+000 -8.331697067151399E+000 -8.331727739385199E+000 
-8.331757672279000E+000 -8.331786883654200E+000 -8.331815390903200E+000 -8.331843210998400E+000 
-8.331870360503601E+000 -8.331896855583601E+000 -8.331922712012799E+000 -8.331947945186000E+000 