<UPF version="2.0.1">
  <PP_INFO>
    Generated using FHI98PP, converted with fhi2upf.x v.5.0.1
    Author: Abinit web site
    Generation date: 10-Jul-2012, PG
    Pseudopotential type: SL
    Element: Ne
    Functional: SLA-PW

    Suggested minimum cutoff for wavefunctions:   0. Ry
    Suggested minimum cutoff for charge density:   0. Ry
    The Pseudo was generated with a Scalar-Relativistic Calculation
    L component and cutoff radius for Local Potential:  2   0.0000

    Valence configuration: 
    nl pn  l   occ       Rcut    Rcut US       E pseu
    2s  2  0  2.00      0.000      0.000     0.000000
    2p  2  1  6.00      0.000      0.000     0.000000
    3d  3  2  0.00      0.000      0.000     0.000000
    4f  4  3  0.00      0.000      0.000     0.000000

    Generation configuration: not available.
    Comment:
    neon, fhi98PP : Trouiller-Martins-type, LDA Ceperley/Alder Perdew/Wang (1992), l
  </PP_INFO>
  <!--                               -->
  <!-- END OF HUMAN READABLE SECTION -->
  <!--                               -->
  <PP_HEADER generated="Generated using FHI98PP, converted with fhi2upf.x v.5.0.1"
             author="Abinit web site"
             date="10-Jul-2012, PG"
             comment="neon, fhi98PP : Trouiller-Martins-type, LDA Ceperley/Alder Perdew/Wang (1992), l"
             element="Ne"
             pseudo_type="SL"
             relativistic="scalar"
             is_ultrasoft="F"
             is_paw="F"
             is_coulomb="F"
             has_so="F"
             has_wfc="F"
             has_gipaw="F"
             paw_as_gipaw="F"
             core_correction="F"
             functional="SLA-PW"
             z_valence="8.000000000000000E+000"
             total_psenergy="0.000000000000000E+000"
             wfc_cutoff="0.000000000000000E+000"
             rho_cutoff="0.000000000000000E+000"
             l_max="3"
             l_max_rho="0"
             l_local="2"
             mesh_size="481"
             number_of_wfc="4"
             number_of_proj="3"/>
  <PP_MESH dx="2.439988682353512E-002" mesh="481" xmin="-5.075173815233827E+000" rmax="7.626291415157201E+001"
zmesh="1.000000000000000E+001">
    <PP_R type="real" size="481" columns="4">
 6.250000000000000E-004  6.404374999999999E-004  6.562563062500000E-004  6.724658370143701E-004 
 6.890757431886300E-004  7.060959140453899E-004  7.235364831223101E-004  7.414078342554300E-004 
 7.597206077615400E-004  7.784857067732500E-004  7.977143037305500E-004  8.174178470326901E-004 
 8.376080678544000E-004  8.582969871304100E-004  8.794969227125300E-004  9.012204967035300E-004 
 9.234806429721000E-004  9.462906148535100E-004  9.696639930404000E-004  9.936146936684899E-004 
 1.018156976602100E-003  1.043305453924200E-003  1.069075098636100E-003  1.095481253572400E-003 
 1.122539640535700E-003  1.150266369656900E-003  1.178677948987400E-003  1.207791294327400E-003 
 1.237623739297300E-003  1.268193045657900E-003  1.299517413885700E-003  1.331615494008700E-003 
 1.364506396710700E-003  1.398209704709400E-003  1.432745484415700E-003  1.468134297880800E-003 
 1.504397215038500E-003  1.541555826249900E-003  1.579632255158300E-003  1.618649171860700E-003 
 1.658629806405700E-003  1.699597962623900E-003  1.741578032300700E-003  1.784595009698500E-003 
 1.828674506438100E-003  1.873842766747100E-003  1.920126683085700E-003  1.967553812158000E-003 
 2.016152391318300E-003  2.065951355383800E-003  2.116980353861800E-003  2.169269768602200E-003 
 2.222850731886700E-003  2.277755144964300E-003  2.334015697044900E-003  2.391665884761900E-003 
 2.450740032115500E-003  2.511273310908800E-003  2.573301761688200E-003  2.636862315201900E-003 
 2.701992814387400E-003  2.768732036902800E-003  2.837119718214300E-003  2.907196575254200E-003 
 2.979004330662900E-003  3.052585737630300E-003  3.127984605349800E-003  3.205245825101900E-003 
 3.284415396981900E-003  3.365540457287400E-003  3.448669306582400E-003  3.533851438455000E-003 
 3.621137568984800E-003  3.710579666938700E-003  3.802230984712100E-003  3.896146090034500E-003 
 3.992380898458400E-003  4.090992706650300E-003  4.192040226504500E-003  4.295583620099200E-003 
 4.401684535515700E-003  4.510406143542900E-003  4.621813175288400E-003  4.735971960718000E-003 
 4.852950468147800E-003  4.972818344711000E-003  5.095646957825400E-003  5.221509437683700E-003 
 5.350480720794400E-003  5.482637594598100E-003  5.618058743184600E-003  5.756824794141300E-003 
 5.899018366556600E-003  6.044724120210500E-003  6.194028805979700E-003  6.347021317487400E-003 
 6.503792744029400E-003  6.664436424806900E-003  6.829048004499600E-003  6.997725490210800E-003 
 7.170569309819000E-003  7.347682371771500E-003  7.529170126354200E-003  7.715140628475200E-003 
 7.905704601998499E-003  8.100975505667900E-003  8.301069600657900E-003  8.506106019794100E-003 
 8.716206838483100E-003  8.931497147393601E-003  9.152105126934200E-003  9.378162123569501E-003 
 9.609802728021701E-003  9.847164855403800E-003  1.009038982733200E-002  1.033962245606700E-002 
 1.059501113073200E-002  1.085670790566100E-002  1.112486859093100E-002  1.139965284512700E-002 
 1.168122427040200E-002  1.196975050988100E-002  1.226540334747500E-002  1.256835881015700E-002 
 1.287879727276800E-002  1.319690356540600E-002  1.352286708347100E-002  1.385688190043300E-002 
 1.419914688337400E-002  1.454986581139300E-002  1.490924749693400E-002  1.527750591010900E-002 
 1.565486030608800E-002  1.604153535564900E-002  1.643776127893300E-002  1.684377398252300E-002 
 1.725981519989100E-002  1.768613263532800E-002  1.812298011142100E-002  1.857061772017300E-002 
 1.902931197786100E-002  1.949933598371500E-002  1.998096958251200E-002  2.047449953120000E-002 
 2.098021966962100E-002  2.149843109546100E-002  2.202944234351900E-002  2.257356956940400E-002 
 2.313113673776800E-002  2.370247581519100E-002  2.428792696782600E-002  2.488783876393100E-002 
 2.550256838140000E-002  2.613248182042100E-002  2.677795412138500E-002  2.743936958818300E-002 
 2.811712201701200E-002  2.881161493083200E-002  2.952326181962300E-002  3.025248638656800E-002 
 3.099972280031600E-002  3.176541595348400E-002  3.255002172753500E-002  3.335400726420500E-002 
 3.417785124363100E-002  3.502204416934900E-002  3.588708866033200E-002  3.677349975024200E-002 
 3.768180519407300E-002  3.861254578236600E-002  3.956627566319100E-002  4.054356267207200E-002 
 4.154498867007200E-002  4.257114989022300E-002  4.362265729251100E-002  4.470013692763600E-002 
 4.580423030974900E-002  4.693559479840000E-002  4.809490398992000E-002  4.928284811847100E-002 
 5.050013446699700E-002  5.174748778833200E-002  5.302565073670400E-002  5.433538430990000E-002 
 5.567746830235500E-002  5.705270176942300E-002  5.846190350312800E-002  5.990591251965500E-002 
 6.138558855889100E-002  6.290181259629500E-002  6.445548736742400E-002  6.604753790539900E-002 
 6.767891209166201E-002  6.935058122032600E-002  7.106354057646901E-002  7.281881002870701E-002 
 7.461743463641600E-002  7.646048527193600E-002  7.834905925815300E-002  8.028428102182900E-002 
 8.226730276306800E-002  8.429930514131601E-002  8.638149797830599E-002  8.851512097837100E-002 
 9.070144446653600E-002  9.294177014486001E-002  9.523743186743799E-002  9.758979643456400E-002 
 1.000002644065000E-001  1.024702709373400E-001  1.050012866294900E-001  1.075948184092400E-001 
 1.102524104239500E-001  1.129756449614200E-001  1.157661433919700E-001  1.186255671337500E-001 
 1.215556186419500E-001  1.245580424224100E-001  1.276346260702400E-001  1.307872013341700E-001 
 1.340176452071300E-001  1.373278810437400E-001  1.407198797055300E-001  1.441956607342500E-001 
 1.477572935543900E-001  1.514068987051800E-001  1.551466491032000E-001  1.589787713360500E-001 
 1.629055469880500E-001  1.669293139986500E-001  1.710524680544200E-001  1.752774640153600E-001 
 1.796068173765400E-001  1.840431057657400E-001  1.885889704781600E-001  1.932471180489700E-001 
 1.980203218647800E-001  2.029114238148400E-001  2.079233359830600E-001  2.130590423818500E-001 
 2.183216007286800E-001  2.237141442666800E-001  2.292398836300600E-001  2.349021087557300E-001 
 2.407041908419900E-001  2.466495843557900E-001  2.527418290893800E-001  2.589845522678900E-001 
 2.653814707089000E-001  2.719363930354100E-001  2.786532219433900E-001  2.855359565253900E-001 
 2.925886946515700E-001  2.998156354094600E-001  3.072210816040700E-001  3.148094423196900E-001 
 3.225852355449900E-001  3.305530908629500E-001  3.387177522072700E-001  3.470840806867800E-001 
 3.556570574797500E-001  3.644417867995000E-001  3.734434989334500E-001  3.826675533571000E-001 
 3.921194419250200E-001  4.018047921405700E-001  4.117293705064400E-001  4.218990859579500E-001 
 4.323199933811100E-001  4.429982972176300E-001  4.539403551589000E-001  4.651526819313300E-001 
 4.766419531750300E-001  4.884150094184500E-001  5.004788601510900E-001  5.128406879968200E-001 
 5.255078529903400E-001  5.384878969592000E-001  5.517885480141000E-001  5.654177251500400E-001 
 5.793835429612501E-001  5.936943164723900E-001  6.083585660892600E-001  6.233850226716700E-001 
 6.387826327316600E-001  6.545605637601301E-001  6.707282096850000E-001  6.872951964642200E-001 
 7.042713878168900E-001  7.216668910959700E-001  7.394920633060400E-001  7.577575172697000E-001 
 7.764741279462600E-001  7.956530389065301E-001  8.153056689675200E-001  8.354437189910200E-001 
 8.560791788501000E-001  8.772243345676900E-001  8.988917756315200E-001  9.210944024896101E-001 
 9.438454342311100E-001  9.671584164566200E-001  9.910472293430900E-001  1.015526095907900E+000 
 1.040609590476800E+000  1.066312647361600E+000  1.092650569751400E+000  1.119639038824300E+000 
 1.147294123083200E+000  1.175632287923400E+000  1.204670405435100E+000  1.234425764449300E+000 
 1.264916080831200E+000  1.296159508027800E+000  1.328174647876000E+000  1.360980561678600E+000 
 1.394596781552000E+000  1.429043322056400E+000  1.464340692111200E+000  1.500509907206300E+000 
 1.537572501914300E+000  1.575550542711600E+000  1.614466641116600E+000  1.654343967152200E+000 
 1.695206263140800E+000  1.737077857840400E+000  1.779983680929000E+000  1.823949277848000E+000 
 1.869000825010800E+000  1.915165145388600E+000  1.962469724479700E+000  2.010942726674400E+000 
 2.060613012023200E+000  2.111510153420200E+000  2.163664454209700E+000  2.217106966228600E+000 
 2.271869508294500E+000  2.327984685149400E+000  2.385485906872500E+000  2.444407408772300E+000 
 2.504784271769000E+000  2.566652443281700E+000  2.630048758630700E+000  2.695010962968900E+000 
 2.761577733754200E+000  2.829788703778000E+000  2.899684484761300E+000  2.971306691534900E+000 
 3.044697966815800E+000  3.119902006596100E+000  3.196963586159100E+000  3.275928586737200E+000 
 3.356844022829600E+000  3.439758070193500E+000  3.524720094527300E+000  3.611780680862100E+000 
 3.700991663679400E+000  3.792406157772300E+000  3.886078589869300E+000  3.982064731039000E+000 
 4.080421729895700E+000  4.181208146624100E+000  4.284483987845700E+000  4.390310742345500E+000 
 4.498751417681400E+000  4.609870577698200E+000  4.723734380967300E+000  4.840410620177200E+000 
 4.959968762495600E+000  5.082479990929200E+000  5.208017246705200E+000  5.336655272698800E+000 
 5.468470657934500E+000  5.603541883185400E+000  5.741949367700100E+000  5.883775517082300E+000 
 6.029104772354300E+000  6.178023660231400E+000  6.330620844639100E+000  6.486987179501700E+000 
 6.647215762835400E+000  6.811401992177400E+000  6.979643621384200E+000  7.152040818832400E+000 
 7.328696227057600E+000  7.509715023865900E+000  7.695204984955400E+000  7.885276548083800E+000 
 8.080042878821400E+000  8.279619937928301E+000  8.484126550395199E+000  8.693684476189899E+000 
 8.908418482751800E+000  9.128456419275800E+000  9.353929292831900E+000  9.584971346364799E+000 
 9.821720138620000E+000  1.006431662604400E+001  1.031290524670700E+001  1.056763400630100E+001 
 1.082865456625700E+001  1.109612233404300E+001  1.137019655569400E+001  1.165104041062000E+001 
 1.193882110876200E+001  1.223370999014800E+001  1.253588262690500E+001  1.284551892779000E+001 
 1.316280324530600E+001  1.348792448546500E+001  1.382107622025600E+001  1.416245680289600E+001 
 1.451226948592800E+001  1.487072254223000E+001  1.523802938902300E+001  1.561440871493200E+001 
 1.600008461019100E+001  1.639528670006300E+001  1.680025028155400E+001  1.721521646350900E+001 
 1.764043231015700E+001  1.807615098821800E+001  1.852263191762700E+001  1.898014092599300E+001 
 1.944895040686500E+001  1.992933948191400E+001  2.042159416711700E+001  2.092600754304500E+001 
 2.144287992935800E+001  2.197251906361400E+001  2.251524028448500E+001  2.307136671951200E+001 
 2.364122947748400E+001  2.422516784557700E+001  2.482352949136300E+001  2.543667066980000E+001 
 2.606495643534400E+001  2.670876085929700E+001  2.736846725252200E+001  2.804446839365900E+001 
 2.873716676298200E+001  2.944697478202800E+001  3.017431505914400E+001  3.091962064110500E+001 
 3.168333527094000E+001  3.246591365213200E+001  3.326782171934000E+001  3.408953691580800E+001 
 3.493154847762800E+001  3.579435772502600E+001  3.667847836083400E+001  3.758443677634600E+001 
 3.851277236472200E+001  3.946403784213100E+001  4.043879957683100E+001  4.143763792637900E+001 
 4.246114758316100E+001  4.350993792846500E+001  4.458463339529800E+001  4.568587384016200E+001 
 4.681431492401300E+001  4.797062850263700E+001  4.915550302665200E+001  5.036964395141000E+001 
 5.161377415701000E+001  5.288863437868800E+001  5.419498364784200E+001  5.553359974394300E+001 
 5.690527965761900E+001  5.831084006516200E+001  5.975111781477100E+001  6.122697042479600E+001 
 6.273927659428900E+001  6.428893672616800E+001  6.587687346330399E+001  6.750403223784799E+001 
 6.917138183412200E+001  7.087991496542500E+001  7.263064886507100E+001  7.442462589203799E+001 
 7.626291415157201E+001
    </PP_R>
    <PP_RAB type="real" size="481" columns="4">
 1.524992926470945E-005  1.562660251754777E-005  1.601257959973120E-005  1.640809031584444E-005 
 1.681337014664593E-005  1.722866038926810E-005  1.765420830088300E-005  1.809026724591478E-005 
 1.853709684688889E-005  1.899496313900705E-005  1.946413872854054E-005  1.994490295513538E-005 
 2.043754205812729E-005  2.094234934696319E-005  2.145962537583315E-005  2.198967812261624E-005 
 2.253282317224468E-005  2.308938390459911E-005  2.365969168704291E-005  2.424408607171267E-005 
 2.484291499768394E-005  2.545653499812742E-005  2.608531141258048E-005  2.672961860447094E-005 
 2.738984018400288E-005  2.806636923654697E-005  2.875960855668906E-005  2.946997088803956E-005 
 3.019787916897446E-005  3.094376678444707E-005  3.170807782402413E-005  3.249126734627809E-005 
 3.329380164973080E-005  3.411615855047782E-005  3.495882766667408E-005  3.582231071004172E-005 
 3.670712178458083E-005  3.761378769265873E-005  3.854284824866807E-005  3.949485660040993E-005 
 4.047037955844105E-005  4.146999793353404E-005  4.249430688249207E-005  4.354391626248896E-005 
 4.461945099417359E-005  4.572155143372916E-005  4.685087375414097E-005  4.800809033587028E-005 
 4.919389016716622E-005  5.040897925429370E-005  5.165408104187525E-005  5.292993684360990E-005 
 5.423730628364769E-005  5.557696774885375E-005  5.694971885225000E-005  5.835637690790035E-005 
 5.979777941752502E-005  6.127478456913905E-005  6.278827174799563E-005  6.433914206017116E-005 
 6.592831886905770E-005  6.755674834512419E-005  6.922540002924877E-005  7.093526740997139E-005 
 7.268736851499576E-005  7.448274651731680E-005  7.632247035629530E-005  7.820763537409480E-005 
 8.013936396783454E-005  8.211880625784120E-005  8.414714077240990E-005  8.622557514948878E-005 
 8.835534685568022E-005  9.053772392301492E-005  9.277400570391373E-005  9.506552364480067E-005 
 9.741364207882842E-005  9.981975903817493E-005  1.022853070864163E-004  1.048117541714518E-004 
 1.074006044994878E-004  1.100533994306243E-004  1.127717183965604E-004  1.155571798409549E-004 
 1.184114421830281E-004  1.213362048049477E-004  1.243332090636308E-004  1.274042393275028E-004 
 1.305511240388900E-004  1.337757368026525E-004  1.370799975016762E-004  1.404658734399686E-004 
 1.439353805139360E-004  1.474905844126291E-004  1.511336018476211E-004  1.548666018132573E-004 
 1.586918068780463E-004  1.626114945079334E-004  1.666279984222786E-004  1.707437099833103E-004 
 1.749610796198979E-004  1.792826182865087E-004  1.837108989581841E-004  1.882485581624525E-004 
 1.928982975490642E-004  1.976628854985269E-004  2.025451587703406E-004  2.075480241919668E-004 
 2.126744603895105E-004  2.179275195611306E-004  2.233103292942900E-004  2.288260944278596E-004 
 2.344780989602286E-004  2.402697080045453E-004  2.462043697922509E-004  2.522856177261170E-004 
 2.585170724839557E-004  2.649024441743074E-004  2.714455345454170E-004  2.781502392486889E-004 
 2.850205501581404E-004  2.920605577470482E-004  2.992744535233988E-004  3.066665325254113E-004 
 3.142411958787920E-004  3.220029534170135E-004  3.299564263664009E-004  3.381063500976575E-004 
 3.464575769450770E-004  3.550150790956122E-004  3.637839515492639E-004  3.727694151525485E-004 
 3.819768197067995E-004  3.914116471535728E-004  4.010795148382531E-004  4.109861788547666E-004 
 4.211375374724716E-004  4.315396346480341E-004  4.421986636238504E-004  4.531209706153570E-004 
 4.643130585895497E-004  4.757815911367319E-004  4.875333964377906E-004  4.995754713298029E-004 
 5.119149854716578E-004  5.245592856128166E-004  5.375158999674559E-004  5.507925426966540E-004 
 5.643971185012546E-004  5.783377273282387E-004  5.926226691932410E-004  6.072604491223066E-004 
 6.222597822156253E-004  6.376295988363615E-004  6.533790499276098E-004  6.695175124608167E-004 
 6.860545950186204E-004  7.030001435155755E-004  7.203642470603968E-004  7.381572439627962E-004 
 7.563897278886716E-004  7.750725541675266E-004  7.942168462554632E-004  8.138340023579704E-004 
 8.339357022162155E-004  8.545339140609637E-004  8.756409017382715E-004  8.972692320112019E-004 
 9.194317820418790E-004  9.421417470582989E-004  9.654126482106524E-004  9.892583406214601E-004 
 1.013693021634806E-003  1.038731239269191E-003  1.064387900879127E-003  1.090678282030841E-003 
 1.117618035597013E-003  1.145223201076264E-003  1.173510214142836E-003  1.202495916432163E-003 
 1.232197565568032E-003  1.262632845437567E-003  1.293819876719879E-003  1.325777227674846E-003 
 1.358523925198426E-003  1.392079466150823E-003  1.426463828964755E-003  1.461697485540178E-003 
 1.497801413433033E-003  1.534797108344814E-003  1.572706596920943E-003  1.611552449864881E-003 
 1.651357795376535E-003  1.692146332922335E-003  1.733942347345540E-003  1.776770723324955E-003 
 1.820656960191080E-003  1.865627187107812E-003  1.911708178629380E-003  1.958927370641516E-003 
 2.007312876696357E-003  2.056893504750763E-003  2.107698774318094E-003  2.159758934043771E-003 
 2.213104979714634E-003  2.267768672713600E-003  2.323782558929624E-003  2.381179988135193E-003 
 2.439995133842188E-003  2.500263013648076E-003  2.562019510085127E-003  2.625301391984269E-003 
 2.690146336366324E-003  2.756592950874534E-003  2.824680796761206E-003  2.894450412441167E-003 
 2.965943337628376E-003  3.039202138067890E-003  3.114270430878082E-003  3.191192910520649E-003 
 3.270015375410656E-003  3.350784755183150E-003  3.433549138636408E-003  3.518357802360567E-003 
 3.605261240078971E-003  3.694311192708839E-003  3.785560679168797E-003  3.879064027944290E-003 
 3.974876909434502E-003  4.073056369097417E-003  4.173660861414205E-003  4.276750284691034E-003 
 4.382386016722917E-003  4.490630951335960E-003  4.601549535834111E-003  4.715207809369199E-003 
 4.831673442260629E-003  4.951015776284465E-003  5.073305865958532E-003  5.198616520847913E-003 
 5.327022348912815E-003  5.458599800931000E-003  5.593427216013826E-003  5.731584868249551E-003 
 5.873155014495155E-003  6.018221943353255E-003  6.166872025354128E-003  6.319193764380433E-003 
 6.475277850360461E-003  6.635217213264369E-003  6.799107078432129E-003  6.967045023269360E-003 
 7.139131035344184E-003  7.315467571917093E-003  7.496159620943356E-003  7.681314763580644E-003 
 7.871043238241176E-003  8.065458006225702E-003  8.264674818979603E-003  8.468812287008163E-003 
 8.677991950497425E-003  8.892338351674717E-003  9.111979108961140E-003  9.337044992952327E-003 
 9.567670004278241E-003  9.803991453383962E-003  1.004615004228250E-002  1.029428994832690E-002 
 1.054855891005054E-002  1.080910831512895E-002  1.107609329051250E-002  1.134967279478828E-002 
 1.163000971281946E-002  1.191727095272602E-002  1.221162754525846E-002  1.251325474562629E-002 
 1.282233213784323E-002  1.313904374164792E-002  1.346357812206682E-002  1.379612850168166E-002 
 1.413689287567330E-002  1.448607412970236E-002  1.484388016070605E-002  1.521052400067562E-002 
 1.558622394349231E-002  1.597120367489652E-002  1.636569240566633E-002  1.676992500808630E-002 
 1.718414215578613E-002  1.760859046703411E-002  1.804352265156985E-002  1.848919766106364E-002 
 1.894588084329188E-002  1.941384410012112E-002  1.989336604939408E-002  2.038473219081417E-002 
 2.088823507592732E-002  2.140417448230254E-002  2.193285759201561E-002  2.247459917453819E-002 
 2.302972177414945E-002  2.359855590197098E-002  2.418144023274945E-002  2.477872180649923E-002 
 2.539075623511915E-002  2.601790791412716E-002  2.666055023960533E-002  2.731906583052457E-002 
 2.799384675653705E-002  2.868529477142462E-002  2.939382155227861E-002  3.011984894461874E-002 
 3.086380921355088E-002  3.162614530112728E-002  3.240731109006301E-002  3.320777167398910E-002 
 3.402800363433513E-002  3.486849532410481E-002  3.572974715861037E-002  3.661227191342691E-002 
 3.751659502968866E-002  3.844325492692238E-002  3.939280332361794E-002  4.036580556571178E-002 
 4.136284096318342E-002  4.238450313497459E-002  4.343140036240705E-002  4.450415595135981E-002 
 4.560340860335729E-002  4.672981279586103E-002  4.788403917191883E-002  4.906677493946648E-002 
 5.027872428046989E-002  5.152060877019816E-002  5.279316780682257E-002  5.409715905164914E-002 
 5.543335888022619E-002  5.680256284456841E-002  5.820558614682704E-002  5.964326412465487E-002 
 6.111645274853444E-002  6.262602913142339E-002  6.417289205096811E-002  6.575796248462756E-002 
 6.738218415799709E-002  6.904652410670135E-002  7.075197325213647E-002  7.249954699146413E-002 
 7.429028580215301E-002  7.612525586146496E-002  7.800554968124501E-002  7.993228675837104E-002 
 8.190661424130259E-002  8.392970761306298E-002  8.600277139110614E-002  8.812703984446586E-002 
 9.030377772862432E-002  9.253428103852179E-002  9.481987778017388E-002  9.716192876134241E-002 
 9.956182840174847E-002  1.020210055632711E-001  1.045409244006835E-001  1.071230852333807E-001 
 1.097690254386443E-001  1.124803203669806E-001  1.152585842800438E-001  1.181054713117611E-001 
 1.210226764531622E-001  1.240119365615543E-001  1.270750313946259E-001  1.302137846700727E-001 
 1.334300651514244E-001  1.367257877606626E-001  1.401029147183515E-001  1.435634567118949E-001 
 1.471094740926804E-001  1.507430781027684E-001  1.544664321319064E-001  1.582817530055648E-001 
 1.621913123048024E-001  1.661974377187302E-001  1.703025144303833E-001  1.745089865368140E-001 
 1.788193585042743E-001  1.832361966593293E-001  1.877621307168151E-001  1.923998553455204E-001 
 1.971521317725531E-001  2.020217894273354E-001  2.070117276261923E-001  2.121249172985578E-001 
 2.173644027558324E-001  2.227333035039022E-001  2.282348161004483E-001  2.338722160581282E-001 
 2.396488597947637E-001  2.455681866316965E-001  2.516337208414924E-001  2.578490737462855E-001 
 2.642179458678276E-001  2.707441291307496E-001  2.774315091202824E-001  2.842840673955622E-001 
 2.913058838602249E-001  2.985011391915622E-001  3.058741173296021E-001  3.134292080276542E-001 
 3.211709094659272E-001  3.291038309297342E-001  3.372326955536989E-001  3.455623431338674E-001 
 3.540977330092854E-001  3.628439470146045E-001  3.718061925058632E-001  3.809898054607613E-001 
 3.904002536556465E-001  4.000431399209478E-001  4.099242054769817E-001  4.200493333522782E-001 
 4.304245518860630E-001  4.410560383176517E-001  4.519501224640981E-001  4.631132904889763E-001 
 4.745521887640533E-001  4.862736278265116E-001  4.982845864338198E-001  5.105922157187402E-001 
 5.232038434469880E-001  5.361269783801496E-001  5.493693147461327E-001  5.629387368203675E-001 
 5.768433236198319E-001  5.910913537132210E-001  6.056913101499436E-001  6.206518855106553E-001 
 6.359819870827671E-001  6.516907421637115E-001  6.677875034951640E-001  6.842818548314874E-001 
 7.011836166458160E-001  7.185028519769761E-001  7.362498724208051E-001  7.544352442696024E-001 
 7.730697948030545E-001  7.921646187346847E-001  8.117310848174396E-001  8.317808426124377E-001 
 8.523258294249537E-001  8.733782774117645E-001  8.949507208638315E-001  9.170560036691536E-001 
 9.397072869597878E-001  9.629180569477036E-001  9.867021329542964E-001  1.011073675638274E+000 
 1.036047195426550E+000  1.061637561153584E+000  1.087860008914076E+000  1.114730151134257E+000 
 1.142263985867248E+000  1.170477906318191E+000  1.199388710604247E+000  1.229013611756164E+000 
 1.259370247966546E+000  1.290476693091316E+000  1.322351467410681E+000  1.355013548655708E+000 
 1.388482383307519E+000  1.422777898175210E+000  1.457920512260126E+000  1.493931148912955E+000 
 1.530831248291118E+000  1.568642780123910E+000  1.607388256792962E+000  1.647090746735757E+000 
 1.687773888180110E+000  1.729461903218163E+000  1.772179612227652E+000  1.815952448649669E+000 
 1.860806474131332E+000
    </PP_RAB>
  </PP_MESH>
  <PP_LOCAL type="real" size="481" columns="4">
-3.388997437903000E+001 -3.388997520005200E+001 -3.388997596918600E+001 -3.388997668607200E+001 
-3.388997735028800E+001 -3.388997796133000E+001 -3.388997851862600E+001 -3.388997902151600E+001 
-3.388997946926400E+001 -3.388997986104800E+001 -3.388998019595800E+001 -3.388998047299400E+001 
-3.388998069105800E+001 -3.388998084895800E+001 -3.388998094539800E+001 -3.388998097897600E+001 
-3.388998094818000E+001 -3.388998085138400E+001 -3.388998068684000E+001 -3.388998045267600E+001 
-3.388998014689200E+001 -3.388997976734800E+001 -3.388997931176600E+001 -3.388997877772000E+001 
-3.388997816262600E+001 -3.388997746374400E+001 -3.388997667815800E+001 -3.388997580278400E+001 
-3.388997483434600E+001 -3.388997376937800E+001 -3.388997260421400E+001 -3.388997133497600E+001 
-3.388996995756000E+001 -3.388996846763600E+001 -3.388996686063000E+001 -3.388996513171400E+001 
-3.388996327579000E+001 -3.388996128748600E+001 -3.388995916113800E+001 -3.388995689077000E+001 
-3.388995447009200E+001 -3.388995189247000E+001 -3.388994915092600E+001 -3.388994623810400E+001 
-3.388994314626600E+001 -3.388993986726000E+001 -3.388993639251600E+001 -3.388993271301000E+001 
-3.388992881925200E+001 -3.388992470125600E+001 -3.388992034852200E+001 -3.388991575000600E+001 
-3.388991089410000E+001 -3.388990576859000E+001 -3.388990036064600E+001 -3.388989465677400E+001 
-3.388988864279400E+001 -3.388988230379800E+001 -3.388987562412200E+001 -3.388986858730400E+001 
-3.388986117604600E+001 -3.388985337217200E+001 -3.388984515658200E+001 -3.388983650921000E+001 
-3.388982740897400E+001 -3.388981783373000E+001 -3.388980776021200E+001 -3.388979716397600E+001 
-3.388978601935400E+001 -3.388977429937600E+001 -3.388976197572000E+001 -3.388974901863200E+001 
-3.388973539686600E+001 -3.388972107760200E+001 -3.388970602637400E+001 -3.388969020697800E+001 
-3.388967358140000E+001 -3.388965610971200E+001 -3.388963774998600E+001 -3.388961845818800E+001 
-3.388959818807800E+001 -3.388957689110200E+001 -3.388955451626800E+001 -3.388953101003000E+001 
-3.388950631616400E+001 -3.388948037563000E+001 -3.388945312643200E+001 -3.388942450347400E+001 
-3.388939443840400E+001 -3.388936285945000E+001 -3.388932969125000E+001 -3.388929485468200E+001 
-3.388925826666200E+001 -3.388921983996000E+001 -3.388917948298800E+001 -3.388913709958200E+001 
-3.388909258877800E+001 -3.388904584457400E+001 -3.388899675567600E+001 -3.388894520523600E+001 
-3.388889107058000E+001 -3.388883422291600E+001 -3.388877452702600E+001 -3.388871184095800E+001 
-3.388864601568200E+001 -3.388857689474600E+001 -3.388850431390000E+001 -3.388842810072200E+001 
-3.388834807420200E+001 -3.388826404432200E+001 -3.388817581161000E+001 -3.388808316667600E+001 
-3.388798588971600E+001 -3.388788375000200E+001 -3.388777650534000E+001 -3.388766390150800E+001 
-3.388754567166200E+001 -3.388742153571200E+001 -3.388729119967600E+001 -3.388715435498800E+001 
-3.388701067779200E+001 -3.388685982818400E+001 -3.388670144942800E+001 -3.388653516713400E+001 
-3.388636058838800E+001 -3.388617730084800E+001 -3.388598487180200E+001 -3.388578284716400E+001 
-3.388557075044400E+001 -3.388534808164800E+001 -3.388511431614000E+001 -3.388486890345200E+001 
-3.388461126602000E+001 -3.388434079788800E+001 -3.388405686332600E+001 -3.388375879540000E+001 
-3.388344589447000E+001 -3.388311742661600E+001 -3.388277262200200E+001 -3.388241067315200E+001 
-3.388203073315400E+001 -3.388163191378400E+001 -3.388121328354800E+001 -3.388077386562200E+001 
-3.388031263571800E+001 -3.387982851984400E+001 -3.387932039196600E+001 -3.387878707158000E+001 
-3.387822732115600E+001 -3.387763984349000E+001 -3.387702327893400E+001 -3.387637620251800E+001 
-3.387569712093200E+001 -3.387498446939400E+001 -3.387423660839800E+001 -3.387345182030200E+001 
-3.387262830580000E+001 -3.387176418024000E+001 -3.387085746980400E+001 -3.386990610752400E+001 
-3.386890792915600E+001 -3.386786066889400E+001 -3.386676195490400E+001 -3.386560930471800E+001 
-3.386440012043400E+001 -3.386313168375200E+001 -3.386180115082800E+001 -3.386040554695000E+001 
-3.385894176102400E+001 -3.385740653987400E+001 -3.385579648234400E+001 -3.385410803321600E+001 
-3.385233747690800E+001 -3.385048093100200E+001 -3.384853433953400E+001 -3.384649346610000E+001 