<UPF version="2.0.1">
  <PP_INFO>
    Generated using FHI98PP, converted with fhi2upf.x v.5.0.1
    Author: Abinit web site
    Generation date: 10-Jul-2012, PG
    Pseudopotential type: SL
    Element: Ni
    Functional: SLA-PW

    Suggested minimum cutoff for wavefunctions:   0. Ry
    Suggested minimum cutoff for charge density:   0. Ry
    The Pseudo was generated with a Non-Relativistic Calculation
    L component and cutoff radius for Local Potential:  0   0.0000

    Valence configuration: 
    nl pn  l   occ       Rcut    Rcut US       E pseu
    1s  1  0  2.00      0.000      0.000     0.000000
    2p  2  1  6.00      0.000      0.000     0.000000
    3d  3  2 10.00      0.000      0.000     0.000000
    4f  4  3 14.00      0.000      0.000     0.000000

    Generation configuration: not available.
    Comment:
    nickel, fhi98PP : Trouiller-Martins-type, LDA Ceperley/Alder Perdew/Wang (1992),
  </PP_INFO>
  <!--                               -->
  <!-- END OF HUMAN READABLE SECTION -->
  <!--                               -->
  <PP_HEADER generated="Generated using FHI98PP, converted with fhi2upf.x v.5.0.1"
             author="Abinit web site"
             date="10-Jul-2012, PG"
             comment="nickel, fhi98PP : Trouiller-Martins-type, LDA Ceperley/Alder Perdew/Wang (1992),"
             element="Ni"
             pseudo_type="SL"
             relativistic="no"
             is_ultrasoft="F"
             is_paw="F"
             is_coulomb="F"
             has_so="F"
             has_wfc="F"
             has_gipaw="F"
             paw_as_gipaw="F"
             core_correction="F"
             functional="SLA-PW"
             z_valence="1.000000000000000E+001"
             total_psenergy="0.000000000000000E+000"
             wfc_cutoff="0.000000000000000E+000"
             rho_cutoff="0.000000000000000E+000"
             l_max="3"
             l_max_rho="0"
             l_local="0"
             mesh_size="525"
             number_of_wfc="4"
             number_of_proj="3"/>
  <PP_MESH dx="2.439988682353512E-002" mesh="525" xmin="-5.075173815233808E+000" rmax="7.969145536894500E+001"
zmesh="2.800000000000000E+001">
    <PP_R type="real" size="525" columns="4">
 2.232142857142900E-004  2.287276785714300E-004  2.343772522321400E-004  2.401663703622800E-004 
 2.460984797102200E-004  2.521771121590700E-004  2.584058868294000E-004  2.647885122340800E-004 
 2.713287884862600E-004  2.780306095618800E-004  2.848979656180500E-004  2.919349453688200E-004 
 2.991457385194300E-004  3.065346382608600E-004  3.141060438259000E-004  3.218644631084000E-004 
 3.298145153471800E-004  3.379609338762500E-004  3.463085689430000E-004  3.548623905958900E-004 
 3.636274916436100E-004  3.726090906872100E-004  3.818125352271800E-004  3.912433048472900E-004 
 4.009070144770200E-004  4.108094177346000E-004  4.209564103526500E-004  4.313540336883600E-004 
 4.420084783204600E-004  4.529260877349700E-004  4.641133621020300E-004  4.755769621459500E-004 
 4.873237131109500E-004  4.993606088247900E-004  5.116948158627700E-004  5.243336778145801E-004 
 5.372847196566000E-004  5.505556522321100E-004  5.641543768422500E-004  5.780889899502500E-004 
 5.923677880020200E-004  6.069992723656701E-004  6.219921543931000E-004  6.373553606066100E-004 
 6.530980380136000E-004  6.692295595525300E-004  6.857595296734800E-004  7.026977900564100E-004 
 7.200544254708100E-004  7.378397697799400E-004  7.560644120935000E-004  7.747392030722100E-004 
 7.938752613880900E-004  8.134839803443800E-004  8.335770346588900E-004  8.541663874149600E-004 
 8.752642971841099E-004  8.968833253245599E-004  9.190363434600700E-004  9.417365411435400E-004 
 9.649974337097800E-004  9.888328703224201E-004  1.013257042219400E-003  1.038284491162200E-003 
 1.063930118093900E-003  1.090209192010800E-003  1.117137359053500E-003  1.144730651822100E-003 
 1.173005498922100E-003  1.201978734745500E-003  1.231667609493700E-003  1.262089799448200E-003 
 1.293263417494600E-003  1.325207023906700E-003  1.357939637397200E-003  1.391480746440900E-003 
 1.425850320878000E-003  1.461068823803700E-003  1.497157223751600E-003  1.534137007178300E-003 
 1.572030191255600E-003  1.610859336979600E-003  1.650647562603000E-003  1.691418557399300E-003 
 1.733196595767100E-003  1.776006551682500E-003  1.819873913509100E-003  1.864824799172700E-003 
 1.910885971712300E-003  1.958084855213600E-003  2.006449551137400E-003  2.056008855050500E-003 
 2.106792273770200E-003  2.158830042932300E-003  2.212153144992800E-003  2.266793327674100E-003 
 2.322783122867600E-003  2.380155866002500E-003  2.438945715892700E-003  2.499187675075300E-003 
 2.560917610649600E-003  2.624172275632700E-003  2.688989330840800E-003  2.755407367312600E-003 
 2.823465929285200E-003  2.893205537738500E-003  2.964667714520700E-003  3.037895007069300E-003 
 3.112931013744000E-003  3.189820409783400E-003  3.268608973905100E-003  3.349343615560500E-003 
 3.432072402864900E-003  3.516844591215600E-003  3.603710652618700E-003  3.692722305738300E-003 
 3.783932546690100E-003  3.877395680593300E-003  3.973167353904000E-003  4.071304587545400E-003 
 4.171865810857800E-003  4.274910896386000E-003  4.380501195526700E-003  4.488699575056200E-003 
 4.599570454560100E-003  4.713179844787700E-003  4.829595386954000E-003  4.948886393011800E-003 
 5.071123886919100E-003  5.196380646926000E-003  5.324731248905100E-003  5.456252110753100E-003 
 5.591021537888700E-003  5.729119769874500E-003  5.870629028190400E-003  6.015633565186700E-003 
 6.164219714246800E-003  6.316475941188700E-003  6.472492896936100E-003  6.632363471490400E-003 
 6.796182849236200E-003  6.964048565612400E-003  7.136060565183000E-003  7.312321261143000E-003 
 7.492935596293200E-003  7.678011105521700E-003  7.867657979828101E-003  8.061989131929801E-003 
 8.261120263488500E-003  8.465169933996699E-003  8.674259631366400E-003  8.888513844261099E-003 
 9.108060136214400E-003  9.333029221578901E-003  9.563555043351900E-003  9.799774852922700E-003 
 1.004182929179000E-002  1.028986247529700E-002  1.054402207843700E-002  1.080445942377400E-002 
 1.107132957154200E-002  1.134479141195900E-002  1.162500775983400E-002  1.191214545150200E-002 
 1.220637544415400E-002  1.250787291762500E-002  1.281681737869000E-002  1.313339276794400E-002 
 1.345778756931200E-002  1.379019492227400E-002  1.413081273685400E-002  1.447984381145400E-002 
 1.483749595359700E-002  1.520398210365100E-002  1.557952046161100E-002  1.596433461701300E-002 
 1.635865368205300E-002  1.676271242800000E-002  1.717675142497100E-002  1.760101718516800E-002 
 1.803576230964200E-002  1.848124563869000E-002  1.893773240596600E-002  1.940549439639300E-002 
 1.988481010798400E-002  2.037596491765100E-002  2.087925125111700E-002  2.139496875702000E-002 
 2.192342448531800E-002  2.246493307010500E-002  2.301981691693700E-002  2.358840639478500E-002 
 2.417104003273700E-002  2.476806472154500E-002  2.537983592016700E-002  2.600671786739500E-002 
 2.664908379872000E-002  2.730731616854900E-002  2.798180687791200E-002  2.867295750779600E-002 
 2.938117955823900E-002  3.010689469332700E-002  3.085053499225200E-002  3.161254320656100E-002 
 3.239337302376300E-002  3.319348933745000E-002  3.401336852408500E-002  3.485349872663000E-002 
 3.571438014517800E-002  3.659652533476300E-002  3.750045951053200E-002  3.842672086044200E-002 
 3.937586086569500E-002  4.034844462907800E-002  4.134505121141600E-002  4.236627397633800E-002 
 4.341272094355400E-002  4.448501515085900E-002  4.558379502508600E-002  4.670971476220500E-002 
 4.786344471683200E-002  4.904567180133700E-002  5.025709989483000E-002  5.149845026223300E-002 
 5.277046198371000E-002  5.407389239470800E-002  5.540951753685700E-002  5.677813262001700E-002 
 5.818055249573200E-002  5.961761214237600E-002  6.109016716229300E-002  6.259909429120200E-002 
 6.414529192019400E-002  6.572968063062300E-002  6.735320374219900E-002  6.901682787463199E-002 
 7.072154352313501E-002  7.246836564815699E-002  7.425833427966599E-002  7.609251513637399E-002 
 7.797200026024199E-002  7.989790866667000E-002  8.187138701073700E-002  8.389361026990200E-002 
 8.596578244356901E-002  8.808913726992500E-002  9.026493896049199E-002  9.249448295281600E-002 
 9.477909668175100E-002  9.712014036979000E-002  9.951900783692399E-002  1.019771273305000E-001 
 1.044959623755600E-001  1.070770126462400E-001  1.097218148586000E-001  1.124319436856000E-001 
 1.152090126946400E-001  1.180546753082000E-001  1.209706257883100E-001  1.239586002452800E-001 
 1.270203776713400E-001  1.301577809998200E-001  1.333726781905200E-001  1.366669833418200E-001 
 1.400426578303700E-001  1.435017114787800E-001  1.470462037523000E-001  1.506782449849800E-001 
 1.543999976361100E-001  1.582136775777200E-001  1.621215554138900E-001  1.661259578326200E-001 
 1.702292689910800E-001  1.744339319351600E-001  1.787424500539600E-001  1.831573885702900E-001 
 1.876813760679800E-001  1.923171060568600E-001  1.970673385764600E-001  2.019349018393000E-001 
 2.069226939147300E-001  2.120336844544300E-001  2.172709164604500E-001  2.226375080970200E-001 
 2.281366545470200E-001  2.337716299143300E-001  2.395457891732200E-001  2.454625701657900E-001 
 2.515254956488900E-001  2.577381753914200E-001  2.641043083235800E-001  2.706276847391800E-001 
 2.773121885522300E-001  2.841617996094700E-001  2.911805960598300E-001  2.983727567825100E-001 
 3.057425638750300E-001  3.132944052027500E-001  3.210327770112600E-001  3.289622866034300E-001 
 3.370876550825400E-001  3.454137201630800E-001  3.539454390511100E-001  3.626878913956700E-001 
 3.716462823131400E-001  3.808259454862800E-001  3.902323463397900E-001  3.998710852943800E-001 
 4.097479011011500E-001  4.198686742583500E-001  4.302394305125300E-001  4.408663444461900E-001 
 4.517557431540100E-001  4.629141100099100E-001  4.743480885271600E-001  4.860644863137800E-001 
 4.980702791257300E-001  5.103726150201400E-001  5.229788186111300E-001  5.358963954308300E-001 
 5.491330363979700E-001  5.626966223970000E-001  5.765952289702000E-001  5.908371311257700E-001 
 6.054308082645700E-001  6.203849492287100E-001  6.357084574746600E-001  6.514104563742800E-001 
 6.675002946467300E-001  6.839875519245000E-001  7.008820444570401E-001  7.181938309551300E-001 
 7.359332185797200E-001  7.541107690786401E-001  7.727373050748800E-001  7.918239165102300E-001 
 8.113819672480300E-001  8.314231018390600E-001  8.519592524544800E-001  8.730026459901100E-001 
 8.945658113460599E-001  9.166615868863101E-001  9.393031280824000E-001  9.625039153460400E-001 
 9.862777620550800E-001  1.010638822777800E+000  1.035601601700500E+000  1.061180961262500E+000 
 1.087392131005600E+000  1.114250716641500E+000  1.141772709342500E+000  1.169974495263300E+000 
 1.198872865296300E+000  1.228485025069100E+000  1.258828605188300E+000  1.289921671736500E+000 
 1.321782737028400E+000  1.354430770633000E+000  1.387885210667600E+000  1.422165975371100E+000 
 1.457293474962700E+000  1.493288623794300E+000  1.530172852802000E+000  1.567968122266300E+000 
 1.606696934886200E+000  1.646382349177900E+000  1.687047993202600E+000  1.728718078634700E+000 
 1.771417415177000E+000  1.815171425331900E+000  1.860006159537600E+000  1.905948311678100E+000 
 1.953025234976600E+000  2.001264958280500E+000  2.050696202750000E+000  2.101348398958000E+000 
 2.153251704412200E+000  2.206437021511200E+000  2.260936015942500E+000  2.316781135536300E+000 
 2.374005629584100E+000  2.432643568634800E+000  2.492729864780100E+000  2.554300292440100E+000 
 2.617391509663400E+000  2.682041079952100E+000  2.748287494626900E+000  2.816170195744200E+000 
 2.885729599579100E+000  2.957007120688700E+000  3.030045196569700E+000  3.104887312925000E+000 
 3.181578029554200E+000  3.260163006884200E+000  3.340689033154200E+000  3.423204052273200E+000 
 3.507757192364300E+000  3.594398795015700E+000  3.683180445252600E+000  3.774155002250300E+000 
 3.867376630805900E+000  3.962900833586800E+000  4.060784484176400E+000  4.161085860935600E+000 
 4.263864681700700E+000  4.369182139338700E+000  4.477100938180300E+000  4.587685331353400E+000 
 4.701001159037800E+000  4.817115887666100E+000  4.936098650091400E+000  5.058020286748700E+000 
 5.182953387831400E+000  5.310972336510800E+000  5.442153353222600E+000  5.576574541047200E+000 
 5.714315932211100E+000  5.855459535736700E+000  6.000089386269400E+000  6.148291594110200E+000 
 6.300154396484800E+000  6.455768210077900E+000  6.615225684866900E+000  6.778621759283100E+000 
 6.946053716737400E+000  7.117621243540800E+000  7.293426488256200E+000  7.473574122516200E+000 
 7.658171403342300E+000  7.847328237004900E+000  8.041157244458899E+000  8.239773828397000E+000 
 8.443296241958400E+000  8.651845659134800E+000  8.865546246915400E+000  9.084525239214200E+000 
 9.308913012622799E+000  9.538843164034599E+000  9.774452590186300E+000  1.001588156916400E+001 
 1.026327384392200E+001  1.051677670786700E+001  1.077654109255100E+001  1.104272165753700E+001 
 1.131547688247900E+001  1.159496916147600E+001  1.188136489976400E+001  1.217483461278800E+001 
 1.247555302772400E+001  1.278369918750900E+001  1.309945655744100E+001  1.342301313440900E+001 
 1.375456155882900E+001  1.409429922933200E+001  1.444242842029700E+001  1.479915640227800E+001 
 1.516469556541400E+001  1.553926354588000E+001  1.592308335546300E+001  1.631638351434300E+001 
 1.671939818714800E+001  1.713236732237000E+001  1.755553679523300E+001  1.798915855407500E+001 
 1.843349077036100E+001  1.888879799238900E+001  1.935535130280100E+001  1.983342847998000E+001 
 2.032331416343500E+001  2.082530002327200E+001  2.133968493384700E+001  2.186677515171300E+001 
 2.240688449796000E+001  2.296033454506000E+001  2.352745480832300E+001  2.410858294208800E+001 
 2.470406494075800E+001  2.531425534479500E+001  2.593951745181100E+001  2.658022353287100E+001 
 2.723675505413300E+001  2.790950290397000E+001  2.859886762569800E+001  2.930525965605300E+001 
 3.002909956955700E+001  3.077081832892500E+001  3.153085754165000E+001  3.230966972292800E+001 
 3.310771856508500E+001  3.392547921364200E+001  3.476343855021900E+001  3.562209548241000E+001 
 3.650196124082500E+001  3.740355968347400E+001  3.832742760765500E+001  3.927411506956400E+001 
 4.024418571178300E+001  4.123821709886400E+001  4.225680106120600E+001  4.330054404741700E+001 
 4.437006748538900E+001  4.546600815227800E+001  4.658901855363900E+001  4.773976731191400E+001 
 4.891893956451800E+001  5.012723737176200E+001  5.136538013484400E+001  5.263410502417500E+001 
 5.393416741827200E+001  5.526634135350300E+001  5.663141998493500E+001  5.803021605856300E+001 
 5.946356239520900E+001  6.093231238637100E+001  6.243734050231400E+001  6.397954281272100E+001 
 6.555983752019600E+001  6.717916550694500E+001  6.883849089496600E+001  7.053880162007199E+001 
 7.228111002008700E+001  7.406645343758400E+001  7.589589483749199E+001  7.777052343997801E+001 
 7.969145536894500E+001
    </PP_R>
    <PP_RAB type="real" size="525" columns="4">
 5.446403308824908E-006  5.580929470552812E-006  5.718778428475360E-006  5.860032255658851E-006 
 6.004775052373422E-006  6.153092996167230E-006  6.305074393172585E-006  6.460809730683797E-006 
 6.620391731031643E-006  6.783915406788354E-006  6.951478117335819E-006  7.123179626834117E-006 
 7.299122163616922E-006  7.479410481058262E-006  7.664151919940323E-006  7.853456472362854E-006 
 8.047436847230279E-006  8.246208537356737E-006  8.449889888229609E-006  8.658602168468830E-006 
 8.872469642030046E-006  9.091619642188258E-006  9.316182647350208E-006  9.546292358739726E-006 
 9.782085780000645E-006  1.002370329876660E-005  1.027128877024627E-005  1.052498960287134E-005 
 1.078495684606220E-005  1.105134528015981E-005  1.132431350857991E-005  1.160402405224183E-005 
 1.189064344633208E-005  1.218434233945647E-005  1.248529559524123E-005  1.279368239644368E-005 
 1.310968635163584E-005  1.343349560452105E-005  1.376530294595288E-005  1.410530592871783E-005 
 1.445370698515713E-005  1.481071354769052E-005  1.517653817231842E-005  1.555139866517470E-005 
 1.593551821220468E-005  1.632912551204599E-005  1.673245491219359E-005  1.714574654852465E-005 
 1.756924648827337E-005  1.800320687653375E-005  1.844788608638402E-005  1.890354887271772E-005 
 1.937046652987376E-005  1.984891705316174E-005  2.033918530437493E-005  2.084156318139288E-005 
 2.135634979197329E-005  2.188385163183509E-005  2.242438276714126E-005  2.297826502148980E-005 
 2.354582816752047E-005  2.412741012325843E-005  2.472335715330330E-005  2.533402407498943E-005 
 2.595977446964151E-005  2.660098089904119E-005  2.725802512724832E-005  2.793129834789083E-005 
 2.862120141708359E-005  2.932814509208614E-005  3.005255027586033E-005  3.079484826767422E-005 
 3.155548101988649E-005  3.233490140107729E-005  3.313357346568400E-005  3.395197273028613E-005 
 3.479058645672443E-005  3.564991394220586E-005  3.653046681657709E-005  3.743276934694741E-005 
 3.835735874981691E-005  3.930478551093706E-005  4.027561371305731E-005  4.127042137176996E-005 
 4.228980077965359E-005  4.333435885890988E-005  4.440471752272599E-005  4.550151404553549E-005 
 4.662540144246106E-005  4.777704885809000E-005  4.895714196488540E-005  5.016638337141822E-005 
 5.140549304069111E-005  5.267520871879559E-005  5.397628637415160E-005  5.530950064759261E-005 
 5.667564531358691E-005  5.807553375283422E-005  5.950999943652772E-005  6.097989642261118E-005 
 6.248609986424823E-005  6.402950653089648E-005  6.561103534220897E-005  6.723162791516231E-005 
 6.889224912466629E-005  7.059388767804447E-005  7.233755670369361E-005  7.412429435427335E-005 
 7.595516442482605E-005  7.783125698611738E-005  7.975368903367570E-005  8.172360515280612E-005 
 8.374217820008179E-005  8.581061000162227E-005  8.793013206866417E-005  9.010200633075818E-005 
 9.232752588712947E-005  9.460801577654046E-005  9.694483376622212E-005  9.933937116024710E-005 
 1.017930536279059E-004  1.043073420525155E-004  1.068837334012118E-004  1.095237616162215E-004 
 1.122289985281424E-004  1.150010547917867E-004  1.178415808451449E-004  1.207522678920209E-004 
 1.237348489089516E-004  1.267910996770026E-004  1.299228398390253E-004  1.331319339830503E-004 
 1.364202927524316E-004  1.397898739834154E-004  1.432426838708057E-004  1.467807781624146E-004 
 1.504062633830259E-004  1.541212980885868E-004  1.579280941513758E-004  1.618289180769143E-004 
 1.658260923534137E-004  1.699219968345447E-004  1.741190701563573E-004  1.784198111892188E-004 
 1.828267805255917E-004  1.873426020045753E-004  1.919699642740886E-004  1.967116223916573E-004 
 2.015703994647321E-004  2.065491883315117E-004  2.116509532832997E-004  2.168787318293959E-004 
 2.222356365055833E-004  2.277248567272713E-004  2.333496606884349E-004  2.391133973074394E-004 
 2.450194982209358E-004  2.510714798269878E-004  2.572729453787184E-004  2.636275871295631E-004 
 2.701391885316824E-004  2.768116264884128E-004  2.836488736626671E-004  2.906550008421375E-004 
 2.978341793629359E-004  3.051906835932100E-004  3.127288934779541E-004  3.204532971468683E-004 
 3.283684935863906E-004  3.364791953779743E-004  3.447902315038062E-004  3.533065502219430E-004 
 3.620332220124272E-004  3.709754425961379E-004  3.801385360282580E-004  3.895279578681611E-004 
 3.991492984274993E-004  4.090082860986656E-004  4.191107907652880E-004  4.294628272971959E-004 
 4.400705591314452E-004  4.509403019419881E-004  4.620785273999639E-004  4.734918670267342E-004 
 4.851871161422968E-004  4.971712379110066E-004  5.094513674874088E-004  5.220348162643579E-004 
 5.349290762260779E-004  5.481418244088534E-004  5.616809274717620E-004  5.755544463803061E-004 
 5.897706412059194E-004  6.043379760436909E-004  6.192651240519662E-004  6.345609726160467E-004 
 6.502346286396714E-004  6.662954239670863E-004  6.827529209390695E-004  6.996169180862541E-004 
 7.168974559629952E-004  7.346048231252689E-004  7.527495622564588E-004  7.713424764442024E-004 
 7.903946356123729E-004  8.099173831119998E-004  8.299223424748658E-004  8.504214243339975E-004 
 8.714268335150530E-004  8.929510763028529E-004  9.150069678875420E-004  9.376076399943609E-004 
 9.607665487022237E-004  9.844974824551767E-004  1.008814570271814E-003  1.033732290157529E-003 
 1.059265477724431E-003  1.085429335024205E-003  1.112239439599322E-003  1.139711753757410E-003 
 1.167862634075231E-003  1.196708841136871E-003  1.226267549512951E-003  1.256556357985938E-003 
 1.287593300028187E-003  1.319396854538892E-003  1.351985956845995E-003  1.385380009980082E-003 
 1.419598896226605E-003  1.454662988963388E-003  1.490593164790791E-003  1.527410815961132E-003 
 1.565137863115355E-003  1.603796768334310E-003  1.643410548512158E-003  1.684002789060425E-003 
 1.725597657950207E-003  1.768219920101591E-003  1.811894952128089E-003  1.856648757445659E-003 
 1.902507981754556E-003  1.949499928903894E-003  1.997652577147826E-003  2.046994595803372E-003 
 2.097555362319726E-003  2.149364979769019E-003  2.202454294769310E-003  2.256854915850109E-003 
 2.312599232271618E-003  2.369720433308720E-003  2.428252528011450E-003  2.488230365453430E-003 
 2.549689655480048E-003  2.612666989970495E-003  2.677199864622714E-003  2.743326701278714E-003 
 2.811086870800437E-003  2.880520716509266E-003  2.951669578206983E-003  3.024575816788665E-003 
 3.099282839463383E-003  3.175835125598078E-003  3.254278253200459E-003  3.334658926054368E-003 
 3.417025001528083E-003  3.501425519065823E-003  3.587910729386605E-003  3.676532124402410E-003 
 3.767342467875174E-003  3.860395826831644E-003  3.955747603754394E-003  4.053454569567296E-003 
 4.153574897435469E-003  4.256168197402132E-003  4.361295551878003E-003  4.469019552009320E-003 
 4.579404334944045E-003  4.692515622017185E-003  4.808420757880901E-003  4.927188750600594E-003 
 5.048890312740412E-003  5.173597903465250E-003  5.301385771680734E-003  5.432330000241172E-003 
 5.566508551247218E-003  5.704001312462990E-003  5.844890144880973E-003  5.989258931459325E-003 
 6.137193627066492E-003  6.288782309655094E-003  6.444115232703377E-003  6.603284878951335E-003 
 6.766386015461243E-003  6.933515750043135E-003  7.104773589069348E-003  7.280261496719415E-003 
 7.460083955688190E-003  7.644348029393852E-003  7.833163425719930E-003  8.026642562335016E-003 
 8.224900633624820E-003  8.428055679275383E-003  8.636228654553532E-003  8.849543502320945E-003 
 9.068127226828199E-003  9.292109969330989E-003  9.521625085573436E-003  9.756809225187030E-003 
 9.997802413049123E-003  1.024474813265147E-002  1.049779341152794E-002  1.075708890879269E-002 
 1.102278900483985E-002  1.129505189325929E-002  1.157403967502292E-002  1.185991845499597E-002 
 1.215285844083436E-002  1.245303404432308E-002  1.276062398521768E-002  1.307581139765268E-002 
 1.339878393917466E-002  1.372973390247228E-002  1.406885832986320E-002  1.441635913061097E-002 
 1.477244320113690E-002  1.513732254820511E-002  1.551121441514579E-002  1.589434141119979E-002 
 1.628693164405656E-002  1.668921885566465E-002  1.710144256139969E-002  1.752384819266629E-002 
 1.795668724302510E-002  1.840021741792785E-002  1.885470278815060E-002  1.932041394701793E-002 
 1.979762817150921E-002  2.028662958734558E-002  2.078770933815290E-002  2.130116575880538E-002 
 2.182730455304773E-002  2.236643897550807E-002  2.291889001820308E-002  2.348498660165280E-002 
 2.406506577071345E-002  2.465947289524909E-002  2.526856187576390E-002  2.589269535409521E-002 
 2.653224492933932E-002  2.718759137909551E-002  2.785912488615806E-002  2.854724527084715E-002 
 2.925236222903699E-002  2.997489557609374E-002  3.071527549682310E-002  3.147394280159582E-002 
 3.225134918879545E-002  3.304795751375866E-002  3.386424206434764E-002  3.470068884333728E-002 
 3.555779585776609E-002  3.643607341545343E-002  3.733604442881466E-002  3.825824472620860E-002 
 3.920322337094406E-002  4.017154298820664E-002  4.116378010001549E-002  4.218052546848577E-002 
 4.322238444755792E-002  4.428997734341329E-002  4.538393978379565E-002  4.650492309645348E-002 
 4.765359469693713E-002  4.883063848595094E-002  5.003675525655324E-002  5.127266311139193E-002 
 5.253909789024178E-002  5.383681360813121E-002  5.516658290425139E-002  5.652919750198691E-002 
 5.792546868028728E-002  5.935622775668971E-002  6.082232658228045E-002  6.232463804886110E-002 
 6.386405660866869E-002  6.544149880690316E-002  6.705790382743325E-002  6.871423405197123E-002 
 7.041147563305537E-002  7.215063908119174E-002  7.393275986649690E-002  7.575889903520007E-002 
 7.763014384136836E-002  7.954760839425043E-002  8.151243432158745E-002  8.352579144933289E-002 
 8.558887849813022E-002  8.770292379703409E-002  8.986918601482113E-002  9.208895490938626E-002 
 9.436355209564853E-002  9.669433183241091E-002  9.908268182867161E-002  1.015300240698408E-001 
 1.040378156643657E-001  1.066075497112753E-001  1.092407561891422E-001  1.119390028670152E-001 
 1.147038962378297E-001  1.175370824749058E-001  1.204402484120346E-001  1.234151225478129E-001 
 1.264634760747441E-001  1.295871239337894E-001  1.327879258949536E-001  1.360677876645590E-001 
 1.394286620198744E-001  1.428725499717650E-001  1.464015019560677E-001  1.500176190543812E-001 
 1.537230542450263E-001  1.575200136848767E-001  1.614107580228950E-001  1.653976037460602E-001 
 1.694829245585880E-001  1.736691527951848E-001  1.779587808692245E-001  1.823543627566961E-001 
 1.868585155167853E-001  1.914739208500510E-001  1.962033266950467E-001  2.010495488644135E-001 
 2.060154727213644E-001  2.111040548975827E-001  2.163183250535523E-001  2.216613876823748E-001 
 2.271364239581297E-001  2.327466936298959E-001  2.384955369625554E-001  2.443863767255330E-001 
 2.504227202306451E-001  2.566081614203451E-001  2.629463830074199E-001  2.694411586677030E-001 
 2.760963552868156E-001  2.829159352623943E-001  2.899039588633643E-001  2.970645866472852E-001 
 3.044020819374765E-001  3.119208133613375E-001  3.196252574513754E-001  3.275200013104050E-001 
 3.356097453427744E-001  3.438993060527391E-001  3.523936189122540E-001  3.610977412993784E-001 
 3.700168555094666E-001  3.791562718405571E-001  3.885214317550130E-001  3.981179111193634E-001 
 4.079514235240294E-001  4.180278236850595E-001  4.283531109300917E-001  4.389334327700587E-001 
 4.497750885594877E-001  4.608845332469090E-001  4.722683812181075E-001  4.839334102341902E-001 
 4.958865654669624E-001  5.081349636340001E-001  5.206858972357643E-001  5.335468388974872E-001 
 5.467254458182476E-001  5.602295643299677E-001  5.740672345689184E-001  5.882466952627565E-001 
 6.027763886357570E-001  6.176649654350671E-001  6.329212900813025E-001  6.485544459463173E-001 
 6.645737407611934E-001  6.809887121579928E-001  6.978091333482938E-001  7.150450189420030E-001 
 7.327066309098581E-001  7.508044846933301E-001  7.693493554652688E-001  7.883522845452425E-001 
 8.078245859735266E-001  8.277778532470581E-001  8.482239662222615E-001  8.691750981879658E-001 
 8.906437231131955E-001  9.126426230741067E-001  9.351848958640174E-001  9.582839627918567E-001 
 9.819535766728343E-001  1.006207830016652E+000  1.031061163418065E+000  1.056528374154472E+000 
 1.082624624996107E+000  1.109365453233508E+000  1.136766779928370E+000  1.164844919392603E+000 
 1.193616588901594E+000  1.223098918647473E+000  1.253309461938053E+000  1.284266205647931E+000 
 1.315987580927432E+000  1.348492474176332E+000  1.381800238288499E+000  1.415930704174228E+000 
 1.450904192567319E+000  1.486741526123740E+000  1.523464041818987E+000  1.561093603651912E+000 
 1.599652615662134E+000  1.639164035268992E+000  1.679651386940123E+000  1.721138776197553E+000 
 1.763650903969613E+000  1.807213081297683E+000  1.851851244405728E+000  1.897591970142549E+000 
 1.944462491805058E+000
    </PP_RAB>
  </PP_MESH>
  <PP_LOCAL type="real" size="525" columns="4">
-1.470018346548840E+001 -1.470018353744380E+001 -1.470018360763680E+001 -1.470018367610840E+001 
-1.470018374289860E+001 -1.470018380804640E+001 -1.470018387158980E+001 -1.470018393356560E+001 
-1.470018399401020E+001 -1.470018405295820E+001 -1.470018411044380E+001 -1.470018416650040E+001 
-1.470018422116000E+001 -1.470018427445420E+001 -1.470018432641340E+001 -1.470018437706720E+001 
-1.470018442644440E+001 -1.470018447457320E+001 -1.470018452148060E+001 -1.470018456719300E+001 
-1.470018461173600E+001 -1.470018465513420E+001 -1.470018469741200E+001 -1.470018473859240E+001 
-1.470018477869800E+001 -1.470018481775060E+001 -1.470018485577140E+001 -1.470018489278040E+001 
-1.470018492879740E+001 -1.470018496384120E+001 -1.470018499793020E+001 -1.470018503108160E+001 
-1.470018506331240E+001 -1.470018509463840E+001 -1.470018512507540E+001 -1.470018515463760E+001 
-1.470018518333940E+001 -1.470018521119380E+001 -1.470018523821380E+001 -1.470018526441080E+001 
-1.470018528979620E+001 -1.470018531438060E+001 -1.470018533817360E+001 -1.470018536118420E+001 
-1.470018538342100E+001 -1.470018540489120E+001 -1.470018542560200E+001 -1.470018544555920E+001 
-1.470018546476840E+001 -1.470018548323380E+001 -1.470018550095920E+001 -1.470018551794760E+001 
-1.470018553420080E+001 -1.470018554972040E+001 -1.470018556450640E+001 -1.470018557855840E+001 
-1.470018559187480E+001 -1.470018560445300E+001 -1.470018561628980E+001 -1.470018562738080E+001 
-1.470018563772000E+001 -1.470018564730120E+001 -1.470018565611660E+001 -1.470018566415700E+001 
-1.470018567141260E+001 -1.470018567787180E+001 -1.470018568352200E+001 -1.470018568834900E+001 
-1.470018569233720E+001 -1.470018569546980E+001 -1.470018569772780E+001 -1.470018569909140E+001 
-1.470018569953820E+001 -1.470018569904460E+001 -1.470018569758500E+001 -1.470018569513180E+001 
-1.470018569165500E+001 -1.470018568712300E+001 -1.470018568150120E+001 -1.470018567475300E+001 
-1.470018566683920E+001 -1.470018565771780E+001 -1.470018564734380E+001 -1.470018563566960E+001 
-1.470018562264380E+001 -1.470018560821220E+001 -1.470018559231640E+001 -1.470018557489480E+001 