<UPF version="2.0.1">
  <PP_INFO>
    Generated using FHI98PP, converted with fhi2upf.x v.5.0.1
    Author: Abinit web site
    Generation date: 10-Jul-2012, PG
    Pseudopotential type: SL
    Element: Np
    Functional: SLA-PW

    Suggested minimum cutoff for wavefunctions:   0. Ry
    Suggested minimum cutoff for charge density:   0. Ry
    The Pseudo was generated with a Non-Relativistic Calculation
    L component and cutoff radius for Local Potential:  1   0.0000

    Valence configuration: 
    nl pn  l   occ       Rcut    Rcut US       E pseu
    7s  7  0  2.00      0.000      0.000     0.000000
    2p  2  1  0.00      0.000      0.000     0.000000
    6d  6  2  1.00      0.000      0.000     0.000000
    5f  5  3  4.00      0.000      0.000     0.000000

    Generation configuration: not available.
    Comment:
    neptunium, fhi98PP : Trouiller-Martins-type, LDA Ceperley/Alder Perdew/Wang (199
  </PP_INFO>
  <!--                               -->
  <!-- END OF HUMAN READABLE SECTION -->
  <!--                               -->
  <PP_HEADER generated="Generated using FHI98PP, converted with fhi2upf.x v.5.0.1"
             author="Abinit web site"
             date="10-Jul-2012, PG"
             comment="neptunium, fhi98PP : Trouiller-Martins-type, LDA Ceperley/Alder Perdew/Wang (199"
             element="Np"
             pseudo_type="SL"
             relativistic="no"
             is_ultrasoft="F"
             is_paw="F"
             is_coulomb="F"
             has_so="F"
             has_wfc="F"
             has_gipaw="F"
             paw_as_gipaw="F"
             core_correction="T"
             functional="SLA-PW"
             z_valence="7.000000000000000E+000"
             total_psenergy="0.000000000000000E+000"
             wfc_cutoff="0.000000000000000E+000"
             rho_cutoff="0.000000000000000E+000"
             l_max="3"
             l_max_rho="0"
             l_local="1"
             mesh_size="573"
             number_of_wfc="4"
             number_of_proj="3"/>
  <PP_MESH dx="2.439988682353512E-002" mesh="573" xmin="-5.075173815233824E+000" rmax="7.739807849759100E+001"
zmesh="9.300000000000000E+001">
    <PP_R type="real" size="573" columns="4">
 6.720430107526899E-005  6.886424731182800E-005  7.056519422042999E-005  7.230815451767499E-005 
 7.409416593426100E-005  7.592429183283801E-005  7.779962184110901E-005  7.972127250058401E-005 
 8.169038793134800E-005  8.370814051325300E-005  8.577573158393000E-005  8.789439215405300E-005 
 9.006538364025800E-005  9.228999861617300E-005  9.456956158199200E-005  9.690542975306700E-005 
 9.929899386796800E-005  1.017516790165100E-004  1.042649454882100E-004  1.068402896417700E-004 
 1.094792447959300E-004  1.121833821423800E-004  1.149543116813000E-004  1.177936831798300E-004 
 1.207031871543700E-004  1.236845558770800E-004  1.267395644072500E-004  1.298700316481100E-004 
 1.330778214298200E-004  1.363648436191300E-004  1.397330552565200E-004  1.431844617213600E-004 
 1.467211179258800E-004  1.503451295386500E-004  1.540586542382500E-004  1.578639029979400E-004 
 1.617631414019900E-004  1.657586909946100E-004  1.698529306621800E-004  1.740482980495400E-004 
 1.783472910113600E-004  1.827524690993400E-004  1.872664550861000E-004  1.918919365267200E-004 
 1.966316673589300E-004  2.014884695427000E-004  2.064652347404000E-004  2.115649260384900E-004 
 2.167905797116400E-004  2.221453070305200E-004  2.276322961141700E-004  2.332548138281900E-004 
 2.390162077297500E-004  2.449199080606700E-004  2.509694297897700E-004  2.571683747055800E-004 
 2.635204335608100E-004  2.700293882697600E-004  2.766991141600200E-004  2.835335822797800E-004 
 2.905368617620900E-004  2.977131222476100E-004  3.050666363671200E-004  3.126017822853900E-004 
 3.203230463078400E-004  3.282350255516500E-004  3.363424306827700E-004  3.446500887206400E-004 
 3.531629459120400E-004  3.618860706760600E-004  3.708246566217600E-004  3.799840256403200E-004 
 3.893696310736300E-004  3.989870609611500E-004  4.088420413668900E-004  4.189404397886600E-004 
 4.292882686514400E-004  4.398916888871300E-004  4.507570136026400E-004  4.618907118386200E-004 
 4.732994124210400E-004  4.849899079078400E-004  4.969691586331600E-004  5.092442968514000E-004 
 5.218226309836299E-004  5.347116499689300E-004  5.479190277231600E-004  5.614526277079200E-004 
 5.753205076123100E-004  5.895309241503300E-004  6.040923379768400E-004  6.190134187248700E-004 
 6.343030501673699E-004  6.499703355065100E-004  6.660246027935200E-004  6.824754104825200E-004 
 6.993325531214400E-004  7.166060671835400E-004  7.343062370429700E-004  7.524436010979300E-004 
 7.710289580450500E-004  7.900733733087600E-004  8.095881856294901E-004  8.295850138145400E-004 
 8.500757636557600E-004  8.710726350180500E-004  8.925881291030000E-004  9.146350558918400E-004 
 9.372265417723700E-004  9.603760373541500E-004  9.840973254768000E-004  1.008404529416100E-003 
 1.033312121292700E-003  1.058834930688600E-003  1.084988153476600E-003  1.111787360867500E-003 
 1.139248508680900E-003  1.167387946845300E-003  1.196222429132400E-003  1.225769123132000E-003 
 1.256045620473300E-003  1.287069947299000E-003  1.318860574997300E-003  1.351436431199700E-003 
 1.384816911050400E-003  1.419021888753300E-003  1.454071729405500E-003  1.489987301121800E-003 
 1.526789987459500E-003  1.564501700149800E-003  1.603144892143500E-003  1.642742570979400E-003 
 1.683318312482600E-003  1.724896274800900E-003  1.767501212788500E-003  1.811158492744400E-003 
 1.855894107515200E-003  1.901734691970800E-003  1.948707538862500E-003  1.996840615072400E-003 
 2.046162578264700E-003  2.096702793947800E-003  2.148491352958300E-003  2.201559089376400E-003 
 2.255937598884000E-003  2.311659257576400E-003  2.368757241238600E-003  2.427265545097200E-003 
 2.487219004061100E-003  2.548653313461400E-003  2.611605050303900E-003  2.676111695046400E-003 
 2.742211653914000E-003  2.809944281765700E-003  2.879349905525300E-003  2.950469848191800E-003 
 3.023346453442100E-003  3.098023110842100E-003  3.174544281679900E-003  3.252955525437400E-003 
 3.333303526915700E-003  3.415636124030500E-003  3.500002336294100E-003  3.586452394000600E-003 
 3.675037768132400E-003  3.765811201005200E-003  3.858826737670100E-003  3.954139758090500E-003 
 4.051807010115400E-003  4.151886643265200E-003  4.254438243353900E-003  4.359522867964700E-003 
 4.467203082803400E-003  4.577542998948700E-003  4.690608311022700E-003  4.806466336305000E-003 
 4.925186054811700E-003  5.046838150365500E-003  5.171495052679600E-003  5.299230980480800E-003 
 5.430121985698600E-003  5.564245998745400E-003  5.701682874914400E-003  5.842514441924800E-003 
 5.986824548640300E-003  6.134699114991700E-003  6.286226183132000E-003  6.441495969855400E-003 
 6.600600920310800E-003  6.763635763042500E-003  6.930697566389600E-003  7.101885796279500E-003 
 7.277302375447600E-003  7.457051744121100E-003  7.641240922200900E-003  7.829979572979300E-003 
 8.023380068431901E-003  8.221557556122101E-003  8.424630027758400E-003  8.632718389444001E-003 
 8.845946533663300E-003  9.064441413044700E-003  9.288333115946901E-003  9.517754943910800E-003 
 9.752843491025400E-003  9.993738725253800E-003  1.024058407176800E-002  1.049352649834000E-002 
 1.075271660284900E-002  1.101830870294000E-002  1.129046092790200E-002  1.156933531282100E-002 
 1.185509789504800E-002  1.214791881305600E-002  1.244797240773800E-002  1.275543732620900E-002 
 1.307049662816700E-002  1.339333789488200E-002  1.372415334088600E-002  1.406313992840600E-002 
 1.441049948463800E-002  1.476643882190800E-002  1.513116986080900E-002  1.550490975637100E-002 
 1.588788102735400E-002  1.628031168872900E-002  1.668243538744100E-002  1.709449154151100E-002 
 1.751672548258600E-002  1.794938860200600E-002  1.839273850047500E-002  1.884703914143700E-002 
 1.931256100823100E-002  1.978958126513400E-002  2.027838392238300E-002  2.077926000526500E-002 
 2.129250772739600E-002  2.181843266826200E-002  2.235734795516800E-002  2.290957444966100E-002 
 2.347544093856800E-002  2.405528432975000E-002  2.464944985269500E-002  2.525829126405700E-002 
 2.588217105827900E-002  2.652146068341800E-002  2.717654076229900E-002  2.784780131912700E-002 
 2.853564201171000E-002  2.924047236939900E-002  2.996271203692300E-002  3.070279102423500E-002 
 3.146114996253400E-002  3.223824036660800E-002  3.303452490366400E-002  3.385047766878400E-002 
 3.468658446720300E-002  3.554334310354300E-002  3.642126367820100E-002  3.732086889105200E-002 
 3.824269435266100E-002  3.918728890317200E-002  4.015521493908000E-002  4.114704874807500E-002 
 4.216338085215300E-002  4.320481635920100E-002  4.427197532327300E-002  4.536549311375800E-002 
 4.648602079366800E-002  4.763422550727200E-002  4.881079087730100E-002  5.001641741197100E-002 
 5.125182292204600E-002  5.251774294822100E-002  5.381493119904200E-002  5.514415999965800E-002 
 5.650622075165000E-002  5.790192440421500E-002  5.933210193700000E-002  6.079760485484400E-002 
 6.229930569475800E-002  6.383809854541900E-002  6.541489957949000E-002  6.703064759910400E-002 
 6.868630459480200E-002  7.038285631829300E-002  7.212131286935500E-002  7.390270929722800E-002 
 7.572810621687000E-002  7.759859044042600E-002  7.951527562430501E-002  8.147930293222500E-002 
 8.349184171465100E-002  8.555409020500300E-002  8.766727623306700E-002  8.983265795602401E-002 
 9.205152460753700E-002  9.432519726534300E-002  9.665502963779700E-002  9.904240886985100E-002 
 1.014887563689400E-001  1.039955286512500E-001  1.065642182089300E-001  1.091963543987000E-001 
 1.118935043523400E-001  1.146572739098500E-001  1.174893085754200E-001  1.203912944972300E-001 
 1.233649594713100E-001  1.264120739702600E-001  1.295344521973200E-001  1.327339531665900E-001 
 1.360124818098100E-001  1.393719901105100E-001  1.428144782662400E-001  1.463419958794200E-001 
 1.499566431776400E-001  1.536605722641300E-001  1.574559883990500E-001  1.613451513125100E-001 
 1.653303765499300E-001  1.694140368507100E-001  1.735985635609200E-001  1.778864480808800E-001 
 1.822802433484700E-001  1.867825653591800E-001  1.913960947235500E-001  1.961235782632200E-001 
 2.009678306463300E-001  2.059317360632900E-001  2.110182499440500E-001  2.162304007176700E-001 
 2.215712916154000E-001  2.270441025183000E-001  2.326520918505000E-001  2.383985985192100E-001 
 2.442870439026300E-001  2.503209338870300E-001  2.565038609540400E-001  2.628395063196000E-001 
 2.693316421257000E-001  2.759841336862000E-001  2.828009417882500E-001  2.897861250504200E-001 
 2.969438423391700E-001  3.042783552449400E-001  3.117940306194900E-001  3.194953431757900E-001 
 3.273868781522400E-001  3.354733340426000E-001  3.437595253934500E-001  3.522503856706700E-001 
 3.609509701967300E-001  3.698664591605900E-001  3.790021607018600E-001  3.883635140711900E-001 
 3.979560928687500E-001  4.077856083626100E-001  4.178579128891700E-001  4.281790033375300E-001 
 4.387550247199700E-001  4.495922738305500E-001  4.606972029941600E-001  4.720764239081200E-001 
 4.837367115786500E-001  4.956850083546400E-001  5.079284280610000E-001  5.204742602341100E-001 
 5.333299744618900E-001  5.465032248311000E-001  5.600018544844300E-001  5.738339002901900E-001 
 5.880075976273600E-001  6.025313852887600E-001  6.174139105053900E-001  6.326640340948700E-001 
 6.482908357370200E-001  6.643036193797200E-001  6.807119187784000E-001  6.975255031722301E-001 
 7.147543831005800E-001  7.324088163631600E-001  7.504993141273300E-001  7.690366471862800E-001 
 7.880318523717800E-001  8.074962391253599E-001  8.274413962317601E-001  8.478791987186800E-001 
 8.688218149270400E-001  8.902817137557300E-001  9.122716720855000E-001  9.348047823860099E-001 
 9.578944605109500E-001  9.815544536855700E-001  1.005798848691600E+000  1.030642080254300E+000 
 1.056098939636600E+000  1.082184583445600E+000  1.108914542656700E+000  1.136304731860300E+000 
 1.164371458737300E+000  1.193131433768100E+000  1.222601780182100E+000  1.252800044152600E+000 
 1.283744205243200E+000  1.315452687112700E+000  1.347944368484400E+000  1.381238594386000E+000 
 1.415355187667300E+000  1.450314460802700E+000  1.486137227984500E+000  1.522844817515700E+000 
 1.560459084508400E+000  1.599002423895700E+000  1.638497783765900E+000  1.678968679025000E+000 
 1.720439205396900E+000  1.762934053770200E+000  1.806478524898300E+000  1.851098544463300E+000 
 1.896820678511500E+000  1.943672149270800E+000  1.991680851357800E+000  2.040875368386300E+000 
 2.091284989985400E+000  2.142939729238100E+000  2.195870340550300E+000  2.250108337961900E+000 
 2.305686013909500E+000  2.362636458453100E+000  2.420993578976900E+000  2.480792120377600E+000 
 2.542067685750900E+000  2.604856757589000E+000  2.669196719501400E+000  2.735125878473100E+000 
 2.802683487671400E+000  2.871909769816900E+000  2.942845941131300E+000  3.015534235877300E+000 
 3.090017931503500E+000  3.166341374411600E+000  3.244550006359600E+000  3.324690391516600E+000 
 3.406810244187100E+000  3.490958457218500E+000  3.577185131111800E+000  3.665541603850300E+000 
 3.756080481465400E+000  3.848855669357600E+000  3.943922404390700E+000  4.041337287779200E+000 
 4.141158318787300E+000  4.243444929261400E+000  4.348258019014100E+000  4.455659992083800E+000 
 4.565714793888200E+000  4.678487949297300E+000  4.794046601644900E+000  4.912459552705500E+000 
 5.033797303657400E+000  5.158132097057700E+000  5.285537959855000E+000  5.416090747463400E+000 
 5.549868188925800E+000  5.686949933192300E+000  5.827417596542100E+000  5.971354811176700E+000 
 6.118847275012800E+000  6.269982802705600E+000  6.424851377932400E+000  6.583545206967300E+000 
 6.746158773579400E+000  6.912788895286800E+000  7.083534781000400E+000  7.258498090091100E+000 
 7.437782992916400E+000  7.621496232841400E+000  7.809747189792600E+000  8.002647945380501E+000 
 8.200313349631401E+000  8.402861089367301E+000  8.610411758274600E+000  8.823088928703999E+000 
 9.041019225243000E+000  9.264332400106500E+000  9.493161410389099E+000  9.727642497225800E+000 
 9.967915266907200E+000  1.021412277400000E+001  1.046641160651800E+001  1.072493197319900E+001 
 1.098983779293700E+001  1.126128678642200E+001  1.153944057004700E+001  1.182446475212700E+001 
 1.211652903150400E+001  1.241580729858300E+001  1.272247773885800E+001  1.303672293900700E+001 
 1.335872999560100E+001  1.368869062649200E+001  1.402680128496700E+001  1.437326327670500E+001 
 1.472828287964000E+001  1.509207146676700E+001  1.546484563199600E+001  1.584682731910600E+001 
 1.623824395388800E+001  1.663932857954900E+001  1.705031999546400E+001  1.747146289935200E+001 
 1.790300803296600E+001  1.834521233138100E+001  1.879833907596600E+001  1.926265805114200E+001 
 1.973844570500500E+001  2.022598531391900E+001  2.072556715117300E+001  2.123748865980700E+001 
 2.176205462970400E+001  2.229957737905700E+001  2.285037694032000E+001  2.341478125074600E+001 
 2.399312634763900E+001  2.458575656842600E+001  2.519302475566600E+001  2.581529246713100E+001 
 2.645293019106900E+001  2.710631756678900E+001  2.777584361068900E+001  2.846190694787300E+001 
 2.916491604948500E+001  2.988528947590700E+001  3.062345612596200E+001  3.137985549227300E+001 
 3.215493792293300E+001  3.294916488962900E+001  3.376300926240300E+001  3.459695559118400E+001 
 3.545150039428600E+001  3.632715245402500E+001  3.722443311964000E+001  3.814387661769500E+001 
 3.908603037015200E+001  4.005145532029500E+001  4.104072626670600E+001  4.205443220549400E+001 
 4.309317668096900E+001  4.415757814498900E+001  4.524827032517000E+001  4.636590260220200E+001 
 4.751114039647600E+001  4.868466556426900E+001  4.988717680370700E+001  5.111939007075800E+001 
 5.238203900550600E+001  5.367587536894200E+001  5.500166949055500E+001  5.636021072697200E+001 
 5.775230793192800E+001  5.917878993784700E+001  6.064050604931100E+001  6.213832654872900E+001 
 6.367314321448300E+001  6.524586985188100E+001  6.685744283722200E+001  6.850882167530200E+001 
 7.020098957068200E+001  7.193495401307700E+001  7.371174737720000E+001  7.553242753741701E+001 
 7.739807849759100E+001
    </PP_R>
    <PP_RAB type="real" size="573" columns="4">
 1.639777340291343E-006  1.680279840596536E-006  1.721782752659267E-006  1.764310786649960E-006 
 1.807889263080200E-006  1.852544127878299E-006  1.898301967836891E-006  1.945190026442452E-006 
 1.993236220095571E-006  2.042469154731948E-006  2.092918142853819E-006  2.144613220982307E-006 
 2.197585167540567E-006  2.251865521178834E-006  2.307486599551940E-006  2.364481518560868E-006 
 2.422884212069327E-006  2.482729452107518E-006  2.544052869574383E-006  2.606890975452900E-006 
 2.671281182546788E-006  2.737261827755463E-006  2.804872194901101E-006  2.874152538115204E-006 
 2.945144105806606E-006  3.017889165219958E-006  3.092431027601040E-006  3.168814073982808E-006 
 3.247083781610225E-006  3.327286751015837E-006  3.409470733765867E-006  3.493684660889980E-006 
 3.579978672014022E-006  3.668404145212787E-006  3.759013727599429E-006  3.851861366671263E-006 
 3.947002342428064E-006  4.044493300285814E-006  4.144392284802951E-006  4.246758774237685E-006 
 4.351653715961266E-006  4.459139562745495E-006  4.569280309945462E-006  4.682141533600953E-006 
 4.797790429480897E-006  4.916295853089183E-006  5.037728360660372E-006  5.162160251168734E-006 
 5.289665609372586E-006  5.420320349924149E-006  5.554202262567181E-006  5.691391058452591E-006 
 5.831968417596461E-006  5.976018037510976E-006  6.123625683037531E-006  6.274879237408624E-006 
 6.429868754572671E-006  6.588686512810567E-006  6.751427069676912E-006  6.918187318298115E-006 
 7.089066545060064E-006  7.264166488722960E-006  7.443591400994272E-006  7.627448108598882E-006 
 7.815846076881296E-006  8.008897474980419E-006  8.206717242612295E-006  8.409423158504954E-006 
 8.617135910520032E-006  8.829979167509696E-006  9.048079652947218E-006  9.271567220375075E-006 
 9.500574930718197E-006  9.735239131506967E-006  9.975699538055180E-006  1.022209931664533E-005 
 1.047458516976648E-005  1.073330742345969E-005  1.099842011681910E-005  1.127008109370440E-005 
 1.154845209671905E-005  1.183369886350802E-005  1.212599122543658E-005  1.242550320870488E-005 
 1.273241313795990E-005  1.304690374246762E-005  1.336916226490651E-005  1.369938057284965E-005 
 1.403775527299914E-005  1.438448782824212E-005  1.473978467759962E-005  1.510385735913638E-005 
 1.547692263590695E-005  1.585920262501399E-005  1.625092492985182E-005  1.665232277561916E-005 
 1.706363514817700E-005  1.748510693633698E-005  1.791698907766442E-005  1.835953870788270E-005 
 1.881301931396743E-005  1.927770089102236E-005  1.975386010303070E-005  2.024178044757560E-005 
 2.074175242463073E-005  2.125407370951894E-005  2.177904933014416E-005  2.231699184859862E-005 
 2.286822154725904E-005  2.343306661947640E-005  2.401186336497753E-005  2.460495639009303E-005 
 2.521269881292888E-005  2.583545247360749E-005  2.647358814970539E-005  2.712748577700380E-005 
 2.779753467569513E-005  2.848413378218436E-005  2.918769188660482E-005  2.990862787620469E-005 
 3.064737098474547E-005  3.140436104806891E-005  3.218004876595657E-005  3.297489597047489E-005 
 3.378937590094726E-005  3.462397348569957E-005  3.547918563079619E-005  3.635552151587646E-005 
 3.725350289731840E-005  3.817366441888340E-005  3.911655393002982E-005  4.008273281210047E-005 
 4.107277631255957E-005  4.208727388747930E-005  4.312682955250047E-005  4.419206224244782E-005 
 4.528360617983660E-005  4.640211125247795E-005  4.754824340041467E-005  4.872268501240482E-005 
 4.992613533221150E-005  5.115931087491620E-005  5.242294585352637E-005  5.371779261610920E-005 
 5.504462209372718E-005  5.640422425944138E-005  5.779740859865112E-005  5.922500459103797E-005 
 6.068786220443659E-005  6.218685240088595E-005  6.372286765518790E-005  6.529682248627090E-005 
 6.690965400168066E-005  6.856232245552277E-005  7.025581182017387E-005  7.199113037213278E-005 
 7.376931129232353E-005  7.559141328124344E-005  7.745852118929016E-005  7.937174666266577E-005 
 8.133222880523354E-005  8.334113485672237E-005  8.539966088768456E-005  8.750903251161123E-005 
 8.967050561464767E-005  9.188536710332775E-005  9.415493567078169E-005  9.648056258184874E-005 
 9.886363247762198E-005  1.013055641998180E-004  1.038078116355547E-004  1.063718645829519E-004 
 1.089992496381501E-004  1.116915311042138E-004  1.144503119224871E-004  1.172772346269735E-004 
 1.201739823222589E-004  1.231422796856175E-004  1.261838939938541E-004  1.293006361755026E-004 
 1.324943618890356E-004  1.357669726276959E-004  1.391204168515997E-004  1.425566911478346E-004 
 1.460778414191851E-004  1.496859641022385E-004  1.533832074155640E-004  1.571717726387294E-004 
 1.610539154229053E-004  1.650319471338516E-004  1.691082362280565E-004  1.732852096628914E-004 
 1.775653543415647E-004  1.819512185938000E-004  1.864454136930671E-004  1.910506154112868E-004 
 1.957695656119459E-004  2.006050738825592E-004  2.055600192074605E-004  2.106373516818840E-004 
 2.158400942684273E-004  2.211713445968555E-004  2.266342768083977E-004  2.322321434455654E-004 
 2.379682773886709E-004  2.438460938401729E-004  2.498690923580357E-004  2.560408589392628E-004 
 2.623650681550627E-004  2.688454853385081E-004  2.754859688263541E-004  2.822904722563607E-004 
 2.892630469211006E-004  2.964078441800595E-004  3.037291179312952E-004  3.112312271441950E-004 
 3.189186384546722E-004  3.267959288244849E-004  3.348677882664598E-004  3.431390226366442E-004 
 3.516145564957784E-004  3.602994360412105E-004  3.691988321114253E-004  3.783180432645779E-004 
 3.876624989332285E-004  3.972377626568635E-004  4.070495353944977E-004  4.171036589187468E-004 
 4.274061192940320E-004  4.379630504405977E-004  4.487807377864671E-004  4.598656220097994E-004 
 4.712243028734538E-004  4.828635431544206E-004  4.947902726703394E-004  5.070115924052758E-004 
 5.195347787377094E-004  5.323672877725142E-004  5.455167597804935E-004  5.589910237470804E-004 
 5.727981020336423E-004  5.869462151538579E-004  6.014437866681624E-004  6.162994481988766E-004 
 6.315220445693838E-004  6.471206390702356E-004  6.631045188552846E-004  6.794832004709909E-004 
 6.962664355226381E-004  7.134642164800415E-004  7.310867826270947E-004  7.491446261579840E-004 
 7.676484984240957E-004  7.866094163351566E-004  8.060386689186541E-004  8.259478240409325E-004 
 8.463487352947444E-004  8.672535490565267E-004  8.886747117182348E-004  9.106249770976615E-004 
 9.331174140319741E-004  9.561654141585706E-004  9.797826998882788E-004  1.003983332575513E-003 
 1.028781720890141E-003  1.054192629396123E-003  1.080231187342201E-003  1.106912897669557E-003 
 1.134253646242000E-003  1.162269711304187E-003  1.190977773173385E-003  1.220394924170784E-003 
 1.250538678797785E-003  1.281426984164102E-003  1.313078230672954E-003  1.345511262970568E-003 
 1.378745391165952E-003  1.412800402327732E-003  1.447696572265249E-003  1.483454677600203E-003 
 1.520096008136912E-003  1.557642379537906E-003  1.596116146312471E-003  1.635540215126404E-003 
 1.675938058440029E-003  1.717333728483483E-003  1.759751871577029E-003  1.803217742804980E-003 
 1.847757221052274E-003  1.893396824412249E-003  1.940163725975243E-003  1.988085770006823E-003 
 2.037191488525993E-003  2.087510118292588E-003  2.139071618214425E-003  2.191906687184328E-003 
 2.246046782357761E-003  2.301524137881994E-003  2.358371784087679E-003  2.416623567154655E-003 
 2.476314169263465E-003  2.537479129244204E-003  2.600154863736393E-003  2.664378688870912E-003 
 2.730188842485830E-003  2.797624506895406E-003  2.866725832215642E-003  2.937533960271299E-003 
 3.010091049089961E-003  3.084440298002694E-003  3.160625973363228E-003  3.238693434905207E-003 
 3.318689162747493E-003  3.400660785067300E-003  3.484657106458472E-003  3.570728136988091E-003 
 3.658925121971656E-003  3.749300572484412E-003  3.841908296624679E-003  3.936803431551394E-003 
 4.034042476310737E-003  4.133683325475532E-003  4.235785303614716E-003  4.340409200614129E-003 
 4.447617307869109E-003  4.557473455373544E-003  4.670043049721228E-003  4.785393113049301E-003 
 4.903592322941825E-003  5.024711053318382E-003  5.148821416335266E-003  5.275997305318796E-003 
 5.406314438760257E-003  5.539850405397626E-003  5.676684710410898E-003  5.816898822758112E-003 
 5.960576223680128E-003  6.107802456405149E-003  6.258665177078365E-003  6.413254206952085E-003 
 6.571661585863944E-003  6.733981627034667E-003  6.900310973222444E-003  7.070748654261044E-003 
 7.245396146021404E-003  7.424357430827951E-003  7.607739059369401E-003  7.795650214135789E-003 
 7.988202774425138E-003  8.185511382953432E-003  8.387693514112327E-003  8.594869543910946E-003 
 8.807162821645410E-003  9.024699743340071E-003  9.247609827000654E-003  9.476025789727427E-003 
 9.710083626733732E-003  9.949922692314102E-003  1.019568578281435E-002  1.044751922164980E-002 
 1.070557294642462E-002  1.097000059820123E-002  1.124095961297669E-002  1.151861131541732E-002 
 1.180312101490811E-002  1.209465810397628E-002  1.239339615914450E-002  1.269951304427545E-002 
 1.301319101646899E-002  1.333461683457581E-002  1.366398187038988E-002  1.400148222258837E-002 
 1.434731883348636E-002  1.470169760867358E-002  1.506482953960776E-002  1.543693082923599E-002 
 1.581822302071828E-002  1.620893312932992E-002  1.660929377762439E-002  1.701954333393180E-002 
 1.743992605427982E-002  1.787069222782042E-002  1.831209832584758E-002  1.876440715449614E-002 
 1.922788801121217E-002  1.970281684508903E-002  2.018947642116282E-002  2.068815648876544E-002 
 2.119915395403815E-002  2.172277305670270E-002  2.225932555120334E-002  2.280913089231802E-002 
 2.337251642535841E-002  2.394981758106475E-002  2.454137807531697E-002  2.514755011377772E-002 
 2.576869460158849E-002  2.640518135824714E-002  2.705738933779569E-002  2.772570685443874E-002 
 2.841053181374461E-002  2.911227194954383E-002  2.983134506669581E-002  3.056817928984324E-002 
 3.132321331830312E-002  3.209689668726504E-002  3.288969003544088E-002  3.370206537931713E-002 
 3.453450639418543E-002  3.538750870212225E-002  3.626158016706401E-002  3.715724119719008E-002 
 3.807502505476219E-002  3.901547817361341E-002  3.997916048450108E-002  4.096664574847027E-002 
 4.197852189845706E-002  4.301539138934886E-002  4.407787155666519E-002  4.516659498411511E-002 
 4.628220988022170E-002  4.742538046426478E-002  4.859678736173240E-002  4.979712800956627E-002 
 5.102711707140153E-002  5.228748686306663E-002  5.357898778858485E-002  5.490238878696307E-002 
 5.625847778999962E-002  5.764806219141348E-002  5.907196932754159E-002  6.053104696993115E-002 
 6.202616383008780E-002  6.355821007669225E-002  6.512809786558538E-002  6.673676188286572E-002 
 6.838515990137285E-002  7.007427335093716E-002  7.180510790270342E-002  7.357869406790159E-002 
 7.539608781137951E-002  7.725837118031968E-002  7.916665294847439E-002  8.112206927629971E-002 
 8.312578438742529E-002  8.517899126179417E-002  8.728291234596057E-002  8.943880028090673E-002 
 9.164793864784507E-002  9.391164273244695E-002  9.623126030793760E-002  9.860817243754487E-002 
 1.010437942967511E-001  1.035395760158822E-001  1.060970035434731E-001  1.087175995309981E-001 
 1.114029242394121E-001  1.141545764681270E-001  1.169741945068887E-001  1.198634571112082E-001 
 1.228240845018568E-001  1.258578393890518E-001  1.289665280219607E-001  1.321520012641027E-001 
 1.354161556953274E-001  1.387609347410027E-001  1.421883298291043E-001  1.457003815758834E-001 
 1.492991810008086E-001  1.529868707715282E-001  1.567656464795842E-001  1.606377579476292E-001 
 1.646055105689359E-001  1.686712666799883E-001  1.728374469669844E-001  1.771065319070687E-001 
 1.814810632451745E-001  1.859636455073294E-001  1.905569475513609E-001  1.952637041558801E-001 
 2.000867176485304E-001  2.050288595744492E-001  2.100930724059363E-001  2.152823712943633E-001 
 2.205998458653344E-001  2.260486620582081E-001  2.316320640110451E-001  2.373533759921201E-001 
 2.432160043791236E-001  2.492234396872926E-001  2.553792586475736E-001  2.616871263361688E-001 
 2.681507983566718E-001  2.747741230760683E-001  2.815610439160564E-001  2.885156017007791E-001 
 2.956419370627752E-001  3.029442929082465E-001  3.104270169430802E-001  3.180945642615550E-001 
 3.259514999988282E-001  3.340025020487909E-001  3.422523638494118E-001  3.507059972364756E-001 
 3.593684353682259E-001  3.682448357218185E-001  3.773404831641439E-001  3.866607930982909E-001 
 3.962113146878206E-001  4.059977341606090E-001  4.160258781943795E-001  4.263017173857817E-001 
 4.368313698052105E-001  4.476211046394173E-001  4.586773459240082E-001  4.700066763683224E-001 
 4.816158412746149E-001  4.935117525541071E-001  5.057014928421985E-001  5.181923197154014E-001 
 5.309916700123661E-001  5.441071642616547E-001  5.575466112189248E-001  5.713180125160345E-001 
 5.854295674251702E-001  5.998896777405796E-001  6.147069527807689E-001  6.298902145144551E-001 
 6.454485028129590E-001  6.613910808324535E-001  6.777274405290228E-001  6.944673083100892E-001 
 7.116206508253371E-001  7.291976809007160E-001  7.472088636189661E-001  7.656649225503481E-001 
 7.845768461373627E-001  8.039558942369448E-001  8.238136048246013E-001  8.441618008637602E-001 
 8.650125973450892E-001  8.863784084995161E-001  9.082719551894683E-001  9.307062724826456E-001 
 9.536947174129654E-001  9.772509769330715E-001  1.001389076063312E+000  1.026123386242084E+000 
 1.051468633882247E+000  1.077439909139140E+000  1.104052674894871E+000  1.131322775964781E+000 
 1.159266448531102E+000  1.187900329809821E+000  1.217241467956137E+000  1.247307332214640E+000 
 1.278115823320349E+000  1.309685284156361E+000  1.342034510675027E+000  1.375182763088707E+000 
 1.409149777336993E+000  1.443955776837226E+000  1.479621484525085E+000  1.516168135192855E+000 
 1.553617488132129E+000  1.591991840088999E+000  1.631314038539186E+000  1.671607495291119E+000 