<UPF version="2.0.1">
  <PP_INFO>
    Generated using FHI98PP, converted with fhi2upf.x v.5.0.1
    Author: Abinit web site
    Generation date: 10-Jul-2012, PG
    Pseudopotential type: SL
    Element: Os
    Functional: SLA-PW

    Suggested minimum cutoff for wavefunctions:   0. Ry
    Suggested minimum cutoff for charge density:   0. Ry
    The Pseudo was generated with a Non-Relativistic Calculation
    L component and cutoff radius for Local Potential:  1   0.0000

    Valence configuration: 
    nl pn  l   occ       Rcut    Rcut US       E pseu
    6s  6  0  2.00      0.000      0.000     0.000000
    6p  6  1  0.00      0.000      0.000     0.000000
    5d  5  2  6.00      0.000      0.000     0.000000
    5f  5  3  0.00      0.000      0.000     0.000000

    Generation configuration: not available.
    Comment:
    osmium, fhi98PP : Trouiller-Martins-type, LDA Ceperley/Alder Perdew/Wang (1992),
  </PP_INFO>
  <!--                               -->
  <!-- END OF HUMAN READABLE SECTION -->
  <!--                               -->
  <PP_HEADER generated="Generated using FHI98PP, converted with fhi2upf.x v.5.0.1"
             author="Abinit web site"
             date="10-Jul-2012, PG"
             comment="osmium, fhi98PP : Trouiller-Martins-type, LDA Ceperley/Alder Perdew/Wang (1992),"
             element="Os"
             pseudo_type="SL"
             relativistic="no"
             is_ultrasoft="F"
             is_paw="F"
             is_coulomb="F"
             has_so="F"
             has_wfc="F"
             has_gipaw="F"
             paw_as_gipaw="F"
             core_correction="F"
             functional="SLA-PW"
             z_valence="8.000000000000000E+000"
             total_psenergy="0.000000000000000E+000"
             wfc_cutoff="0.000000000000000E+000"
             rho_cutoff="0.000000000000000E+000"
             l_max="3"
             l_max_rho="0"
             l_local="1"
             mesh_size="565"
             number_of_wfc="4"
             number_of_proj="3"/>
  <PP_MESH dx="2.439988682353512E-002" mesh="565" xmin="-5.075173815233829E+000" rmax="7.791581998614400E+001"
zmesh="7.600000000000000E+001">
    <PP_R type="real" size="565" columns="4">
 8.223684210526299E-005  8.426809210526301E-005  8.634951398026300E-005  8.848234697557599E-005 
 9.066786094587200E-005  9.290735711123500E-005  9.520216883188300E-005  9.755366240203000E-005 
 9.996323786336100E-005  1.024323298385900E-004  1.049624083856000E-004  1.075549798727200E-004 
 1.102115878755800E-004  1.129338140961100E-004  1.157232793042800E-004  1.185816443031000E-004 
 1.215106109173800E-004  1.245119230070400E-004  1.275873675053200E-004  1.307387754827000E-004 
 1.339680232371200E-004  1.372770334110800E-004  1.406677761363300E-004  1.441422702069000E-004 
 1.477025842810100E-004  1.513508381127500E-004  1.550892038141300E-004  1.589199071483400E-004 
 1.628452288549100E-004  1.668675060076200E-004  1.709891334060100E-004  1.752125650011400E-004 
 1.795403153566700E-004  1.839749611459800E-004  1.885191426862800E-004  1.931755655106300E-004 
 1.979470019787500E-004  2.028362929276200E-004  2.078463493629300E-004  2.129801541922000E-004 
 2.182407640007400E-004  2.236313108715600E-004  2.291550042500900E-004  2.348151328550700E-004 
 2.406150666365900E-004  2.465582587825100E-004  2.526482477744400E-004  2.588886594944700E-004 
 2.652832093839800E-004  2.718357046557700E-004  2.785500465607600E-004  2.854302327108100E-004 
 2.924803594587700E-004  2.997046243374000E-004  3.071073285585400E-004  3.146928795739300E-004 
 3.224657936994100E-004  3.304306988037800E-004  3.385923370642400E-004  3.469555677897200E-004 
 3.555253703141300E-004  3.643068469608900E-004  3.733052260808200E-004  3.825258651650200E-004 
 3.919742540346000E-004  4.016560181092500E-004  4.115769217565500E-004  4.217428717239400E-004 
 4.321599206555200E-004  4.428342706957100E-004  4.537722771818900E-004  4.649804524282900E-004 
 4.764654696032600E-004  4.882341667024600E-004  5.002935506200200E-004  5.126508013203300E-004 
 5.253132761129400E-004  5.382885140329300E-004  5.515842403295401E-004  5.652083710656800E-004 
 5.791690178310100E-004  5.934744925714300E-004  6.081333125379500E-004  6.231542053576300E-004 
 6.385461142299700E-004  6.543182032514500E-004  6.704798628717600E-004  6.870407154846900E-004 
 7.040106211571600E-004  7.213996834997401E-004  7.392182556821900E-004  7.574769465975400E-004 
 7.761866271785000E-004  7.953584368698100E-004  8.150037902604900E-004  8.351343838799200E-004 
 8.557622031617600E-004  8.768995295798500E-004  8.985589479604800E-004  9.207533539750999E-004 
 9.434959618182800E-004  9.668003120752000E-004  9.906802797834500E-004  1.015150082694100E-003 
 1.040224289736600E-003  1.065917829693100E-003  1.092246000086600E-003  1.119224476288700E-003 
 1.146869320853000E-003  1.175196993078100E-003  1.204224358807100E-003  1.233968700469700E-003 
 1.264447727371300E-003  1.295679586237300E-003  1.327682872017400E-003  1.360476638956200E-003 
 1.394080411938500E-003  1.428514198113300E-003  1.463798498806700E-003  1.499954321727300E-003 
 1.537003193473900E-003  1.574967172352700E-003  1.613868861509800E-003  1.653731422389100E-003 
 1.694578588522100E-003  1.736434679658600E-003  1.779324616246200E-003  1.823273934267500E-003 
 1.868308800443900E-003  1.914456027814900E-003  1.961743091701900E-003  2.010198146066900E-003 
 2.059850040274800E-003  2.110728336269600E-003  2.162863326175400E-003  2.216286050332000E-003 
 2.271028315775200E-003  2.327122715174800E-003  2.384602646239600E-003  2.443502331601700E-003 
 2.503856839192300E-003  2.565702103120300E-003  2.629074945067400E-003  2.694013096210600E-003 
 2.760555219687000E-003  2.828740933613300E-003  2.898610834673500E-003  2.970206522289900E-003 
 3.043570623390500E-003  3.118746817788200E-003  3.195779864187600E-003  3.274715626833000E-003 
 3.355601102815800E-003  3.438484450055400E-003  3.523415015971700E-003  3.610443366866200E-003 
 3.699621318027800E-003  3.791001964583100E-003  3.884639713108300E-003  3.980590314022100E-003 
 4.078910894778400E-003  4.179659993879500E-003  4.282897595728300E-003  4.388685166342800E-003 
 4.497085689951500E-003  4.608163706493300E-003  4.721985350043600E-003  4.838618388189700E-003 
 4.958132262378000E-003  5.080598129258700E-003  5.206088903051400E-003  5.334679298956800E-003 
 5.466445877641000E-003  5.601467090818800E-003  5.739823327962000E-003  5.881596964162600E-003 
 6.026872409177500E-003  6.175736157684100E-003  6.328276840778900E-003  6.484585278746200E-003 
 6.644754535131200E-003  6.808879972149000E-003  6.977059307461000E-003  7.149392672355300E-003 
 7.325982671362500E-003  7.506934443345200E-003  7.692355724095800E-003  7.882356910480901E-003 
 8.077051126169800E-003  8.276554288986200E-003  8.480985179924200E-003  8.690465513868300E-003 
 8.905120012060799E-003  9.125076476358700E-003  9.350465865324800E-003  9.581422372198301E-003 
 9.818083504791599E-003  1.006059016736000E-002  1.030908674449400E-002  1.056372118708300E-002 
 1.082464510040400E-002  1.109201383438400E-002  1.136598657609300E-002  1.164672644452200E-002 
 1.193440058770200E-002  1.222918028221800E-002  1.253124103518900E-002  1.284076268875800E-002 
 1.315792952717100E-002  1.348293038649200E-002  1.381595876703800E-002  1.415721294858400E-002 
 1.450689610841400E-002  1.486521644229200E-002  1.523238728841600E-002  1.560862725444000E-002 
 1.599416034762500E-002  1.638921610821100E-002  1.679402974608400E-002  1.720884228081200E-002 
 1.763390068514900E-002  1.806945803207200E-002  1.851577364546400E-002  1.897311325450700E-002 
 1.944174915189300E-002  1.992196035594500E-002  2.041403277673700E-002  2.091825938632200E-002 
 2.143494039316400E-002  2.196438342087500E-002  2.250690369137100E-002  2.306282421254800E-002 
 2.363247597059800E-002  2.421619812707200E-002  2.481433822081000E-002  2.542725237486400E-002 
 2.605530550852300E-002  2.669887155458400E-002  2.735833368198200E-002  2.803408452392700E-002 
 2.872652641166800E-002  2.943607161403600E-002  3.016314258290300E-002  3.090817220470100E-002 
 3.167160405815700E-002  3.245389267839300E-002  3.325550382755000E-002  3.407691477209000E-002 
 3.491861456696100E-002  3.578110434676500E-002  3.666489762413000E-002  3.757052059544600E-002 
 3.849851245415300E-002  3.944942571177100E-002  4.042382652685200E-002  4.142229504206500E-002 
 4.244542572960400E-002  4.349382774512500E-002  4.456812529043000E-002  4.566895798510300E-002 
 4.679698124733500E-002  4.795286668414400E-002  4.913730249124300E-002  5.035099386277700E-002 
 5.159466341118700E-002  5.286905159744300E-002  5.417491717190000E-002  5.551303762604600E-002 
 5.688420965541000E-002  5.828924963389800E-002  5.972899409985500E-002  6.120430025412200E-002 
 6.271604647039900E-002  6.426513281821800E-002  6.585248159882701E-002  6.747903789431900E-002 
 6.914577013030800E-002  7.085367065252700E-002  7.260375631764400E-002  7.439706909869000E-002 
 7.623467670542800E-002  7.811767322005200E-002  8.004717974858699E-002  8.202434508837700E-002 
 8.405034641206000E-002  8.612638996843799E-002  8.825371180065800E-002  9.043357848213500E-002 
 9.266728787064300E-002  9.495616988104801E-002  9.730158727711000E-002  9.970493648285500E-002 
 1.021676484139800E-001  1.046911893298100E-001  1.072770617062500E-001  1.099268051304000E-001 
 1.126419972171200E-001  1.154242545483800E-001  1.182752336357300E-001  1.211966319065300E-001 
 1.241901887146200E-001  1.272576863758700E-001  1.304009512293500E-001  1.336218547247200E-001 
 1.369223145364200E-001  1.403042957054700E-001  1.437698118093900E-001  1.473209261610900E-001 
 1.509597530372700E-001  1.546884589372900E-001  1.585092638730400E-001  1.624244426907000E-001 
 1.664363264251600E-001  1.705473036878600E-001  1.747598220889500E-001  1.790763896945500E-001 
 1.834995765200100E-001  1.880320160600500E-001  1.926764068567300E-001  1.974355141060900E-001 
 2.023121713045100E-001  2.073092819357400E-001  2.124298211995500E-001  2.176768377831800E-001 
 2.230534556764200E-001  2.285628760316300E-001  2.342083790696100E-001  2.399933260326300E-001 
 2.459211611856400E-001  2.519954138669200E-001  2.582197005894300E-001  2.645977271939900E-001 
 2.711332910556900E-001  2.778302833447600E-001  2.846926913433800E-001  2.917246008195600E-001 
 2.989301984598000E-001  3.063137743617600E-001  3.138797245884900E-001  3.216325537858300E-001 
 3.295768778643400E-001  3.377174267475900E-001  3.460590471882500E-001  3.546067056538000E-001 
 3.633654912834500E-001  3.723406189181500E-001  3.815374322054300E-001  3.909614067809100E-001 
 4.006181535283900E-001  4.105134219205500E-001  4.206531034419800E-001  4.310432350970000E-001 
 4.416900030039000E-001  4.525997460780900E-001  4.637789598062200E-001  4.752343001134300E-001 
 4.869725873262400E-001  4.990008102331900E-001  5.113261302459500E-001  5.239558856630300E-001 
 5.368975960389100E-001  5.501589666610700E-001  5.637478931375900E-001  5.776724660980900E-001 
 5.919409760107200E-001  6.065619181181801E-001  6.215439974957000E-001  6.368961342338400E-001 
 6.526274687494200E-001  6.687473672275300E-001  6.852654271980499E-001  7.021914832498400E-001 
 7.195356128861100E-001  7.373081425244000E-001  7.555196536447500E-001  7.741809890897799E-001 
 7.933032595203000E-001  8.128978500304500E-001  8.329764269262000E-001  8.535509446712800E-001 
 8.746336530046600E-001  8.962371042338700E-001  9.183741607084500E-001  9.410580024779500E-001 
 9.643021351391500E-001  9.881203978770901E-001  1.012526971704700E+000  1.037536387905800E+000 
 1.063163536687000E+000  1.089423676043200E+000  1.116332440841500E+000  1.143905852130200E+000 
 1.172160326677900E+000  1.201112686746800E+000  1.230780170109500E+000  1.261180440311200E+000 
 1.292331597186800E+000  1.324252187637400E+000  1.356961216672000E+000  1.390478158723800E+000 
 1.424822969244300E+000  1.460016096584600E+000  1.496078494170300E+000  1.533031632976300E+000 
 1.570897514310800E+000  1.609698682914200E+000  1.649458240382200E+000  1.690199858919700E+000 
 1.731947795435000E+000  1.774726905982200E+000  1.818562660560000E+000  1.863481158275800E+000 
 1.909509142885200E+000  1.956674018714500E+000  2.005003866976700E+000  2.054527462491100E+000 
 2.105274290814600E+000  2.157274565797700E+000  2.210559247572900E+000  2.265160060988000E+000 
 2.321109514494400E+000  2.378440919502400E+000  2.437188410214100E+000  2.497386963946400E+000 
 2.559072421955900E+000  2.622281510778200E+000  2.687051864094400E+000  2.753422045137500E+000 
 2.821431569652400E+000  2.891120929422800E+000  2.962531616379600E+000  3.035706147304200E+000 
 3.110688089142600E+000  3.187522084944400E+000  3.266253880442500E+000  3.346930351289500E+000 
 3.429599530966300E+000  3.514310639381200E+000  3.601114112173900E+000  3.690061630744600E+000 
 3.781206153024000E+000  3.874601945003700E+000  3.970304613045200E+000  4.068371136987500E+000 
 4.168859904071100E+000  4.271830743701600E+000  4.377344963071000E+000  4.485465383658900E+000 
 4.596256378635300E+000  4.709783911187600E+000  4.826115573793900E+000  4.945320628466600E+000 
 5.067470047989700E+000  5.192636558175100E+000  5.320894681162000E+000  5.452320779786700E+000 
 5.586993103047400E+000  5.724991832692700E+000  5.866399130960200E+000  6.011299189494900E+000 
 6.159778279475500E+000  6.311924802978500E+000  6.467829345612100E+000  6.627584730448700E+000 
 6.791286073290800E+000  6.959030839301000E+000  7.130918901031800E+000  7.307052597887300E+000 
 7.487536797055100E+000  7.672478955942300E+000  7.861989186154100E+000  8.056180319052100E+000 
 8.255167972932700E+000  8.459070621864100E+000  8.668009666224201E+000  8.882109504979899E+000 
 9.101497609752901E+000  9.326304600713801E+000  9.556664324351500E+000  9.792713933162901E+000 
 1.003459396731200E+001  1.028244843830500E+001  1.053642491473100E+001  1.079667461012500E+001 
 1.106335247299500E+001  1.133661727907800E+001  1.161663172587100E+001  1.190356252950000E+001 
 1.219758052397900E+001  1.249886076292100E+001  1.280758262376500E+001  1.312392991457200E+001 
 1.344809098346200E+001  1.378025883075300E+001  1.412063122387300E+001  1.446941081510300E+001 
 1.482680526223600E+001  1.519302735221300E+001  1.556829512781300E+001  1.595283201747000E+001 
 1.634686696830100E+001  1.675063458241800E+001  1.716437525660400E+001  1.758833532544200E+001 
 1.802276720798000E+001  1.846792955801700E+001  1.892408741810100E+001  1.939151237732800E+001 
 1.987048273304800E+001  2.036128365655400E+001  2.086420736287100E+001  2.137955328473400E+001 
 2.190762825086700E+001  2.244874666866300E+001  2.300323071137900E+001  2.357141050995000E+001 
 2.415362434954600E+001  2.475021887098000E+001  2.536154927709300E+001  2.598797954423700E+001 
 2.662988263898000E+001  2.728764074016200E+001  2.796164546644400E+001  2.865229810946600E+001 
 2.936000987276900E+001  3.008520211662700E+001  3.082830660890700E+001  3.158976578214700E+001 
 3.237003299696600E+001  3.316957281199200E+001  3.398886126044800E+001  3.482838613358100E+001 
 3.568864727108000E+001  3.657015685867600E+001  3.747343973308500E+001  3.839903369449200E+001 
 3.934748982674600E+001  4.031937282546700E+001  4.131526133425600E+001  4.233574828921200E+001 
 4.338144127195600E+001  4.445296287137300E+001  4.555095105429600E+001  4.667605954533700E+001 
 4.782895821610700E+001  4.901033348404500E+001  5.022088872110100E+001  5.146134467251200E+001 
 5.273243988592300E+001  5.403493115110500E+001  5.536959395053700E+001  5.673722292111600E+001 
 5.813863232726700E+001  5.957465654575100E+001  6.104615056243100E+001  6.255399048132300E+001 
 6.409907404621100E+001  6.568232117515301E+001  6.730467450817900E+001  6.896709996853100E+001 
 7.067058733775400E+001  7.241615084499600E+001  7.420482977086800E+001  7.603768906620800E+001 
 7.791581998614400E+001
    </PP_R>
    <PP_RAB type="real" size="565" columns="4">
 2.006569640093345E-006  2.056131910203651E-006  2.106918368385681E-006  2.158959252084819E-006 
 2.212285545611297E-006  2.266928998587895E-006  2.322922144853028E-006  2.380298321830886E-006 
 2.439091690380129E-006  2.499337255132616E-006  2.561070885334314E-006  2.624329336201966E-006 
 2.689150270806247E-006  2.755572282495239E-006  2.823634917872776E-006  2.893378700344338E-006 
 2.964845154242683E-006  3.038076829552494E-006  3.113117327242591E-006  3.190011325225449E-006 
 3.268804604958451E-006  3.349544078701001E-006  3.432277817444827E-006  3.517055079535778E-006 
 3.603926340000302E-006  3.692943320598286E-006  3.784159020616944E-006  3.877627748426206E-006 
 3.973405153812479E-006  4.071548261111494E-006  4.172115503160992E-006  4.275166756089107E-006 
 4.380763374964553E-006  4.488968230326183E-006  4.599845745615101E-006  4.713461935531766E-006 
 4.829884445339583E-006  4.949182591139345E-006  5.071427401140433E-006  5.196691657948739E-006 
 5.325049941899894E-006  5.456578675464864E-006  5.591356168748906E-006  5.729462666117072E-006 
 5.870980393970157E-006  6.015993609701128E-006  6.164588651860795E-006  6.316853991561790E-006 
 6.472880285153282E-006  6.632760428196707E-006  6.796589610772982E-006  6.964465374159057E-006 
 7.136487668900858E-006  7.312758914322670E-006  7.493384059506592E-006  7.678470645776260E-006 
 7.868128870727029E-006  8.062471653833855E-006  8.261614703683713E-006  8.465676586864535E-006 
 8.674778798560184E-006  8.889045834884645E-006  9.108605267006200E-006  9.333587817101345E-006 
 9.564127436183846E-006  9.800361383857473E-006  1.004243031003879E-005  1.029047833869683E-005 
 1.054465315366261E-005  1.080510608655804E-005  1.107199220689592E-005  1.134547041440643E-005 
 1.162570353364206E-005  1.191285841092300E-005  1.220710601367303E-005  1.250862153221064E-005 
 1.281758448405619E-005  1.313417882081239E-005  1.345859303768637E-005  1.379102028571724E-005 
 1.413165848677464E-005  1.448071045139783E-005  1.483838399954749E-005  1.520489208433614E-005 
 1.558045291881940E-005  1.596529010591423E-005  1.635963277153029E-005  1.676371570098703E-005 
 1.717777947880136E-005  1.760207063192771E-005  1.803684177653648E-005  1.848235176841693E-005 
 1.893886585709685E-005  1.940665584376717E-005  1.988600024310811E-005  2.037718444911278E-005 
 2.088050090500601E-005  2.139624927735953E-005  2.192473663451050E-005  2.246627762938281E-005 
 2.302119468682845E-005  2.358981819559332E-005  2.417248670502429E-005  2.476954712663836E-005 
 2.538135494066524E-005  2.600827440769983E-005  2.665067878557197E-005  2.730895055157465E-005 
 2.798348163019779E-005  2.867467362646443E-005  2.938293806503739E-005  3.010869663524539E-005 
 3.085238144213592E-005  3.161443526375493E-005  3.239531181477063E-005  3.319547601659474E-005 
 3.401540427420662E-005  3.485558475977754E-005  3.571651770334409E-005  3.659871569061851E-005 
 3.750270396817522E-005  3.842902075618901E-005  3.937821756886660E-005  4.035085954281779E-005 
 4.134752577352513E-005  4.236880966013130E-005  4.341531925873734E-005  4.448767764442861E-005 
 4.558652328224582E-005  4.671251040731817E-005  4.786630941437825E-005  4.904860725691247E-005 
 5.026010785615938E-005  5.150153252020682E-005  5.277362037345449E-005  5.407712879668046E-005 
 5.541283387795845E-005  5.678153087474288E-005  5.818403468734860E-005  5.962118034412566E-005 
 6.109382349862650E-005  6.260284093904135E-005  6.414913111023638E-005  6.573361464866008E-005 
 6.735723493048193E-005  6.902095863326560E-005  7.072577631150607E-005  7.247270298639941E-005 
 7.426277875016444E-005  7.609706938529239E-005  7.797666699910989E-005  7.990269067398707E-005 
 8.187628713363516E-005  8.389863142583716E-005  8.597092762205367E-005  8.809440953431836E-005 
 9.027034144981615E-005  9.250001888362695E-005  9.478476935005246E-005  9.712595315299936E-005 
 9.952496419587732E-005  1.019832308115173E-004  1.045022166125612E-004  1.070834213628917E-004 
 1.097283818705560E-004  1.124386729027586E-004  1.152159081234547E-004  1.180617410541046E-004 
 1.209778660581413E-004  1.239660193497765E-004  1.270279800277163E-004  1.301655711344016E-004 
 1.333806607414205E-004  1.366751630617353E-004  1.400510395893595E-004  1.435103002672152E-004 
 1.470550046838175E-004  1.506872632995057E-004  1.544092387030036E-004  1.582231468989692E-004 
 1.621312586273730E-004  1.661359007154706E-004  1.702394574631407E-004  1.744443720624806E-004 
 1.787531480524245E-004  1.831683508093205E-004  1.876926090743101E-004  1.923286165184439E-004 
 1.970791333464500E-004  2.019469879401075E-004  2.069350785422291E-004  2.120463749822215E-004 
 2.172839204442812E-004  2.226508332792549E-004  2.281503088612535E-004  2.337856214901259E-004 
 2.395601263409321E-004  2.454772614615543E-004  2.515405498196597E-004  2.577536014002053E-004 
 2.641201153547916E-004  2.706438822040555E-004  2.773287860944886E-004  2.841788071110104E-004 
 2.911980236466598E-004  2.983906148307265E-004  3.057608630170507E-004  3.133131563335677E-004 
 3.210519912950234E-004  3.289819754800075E-004  3.371078302743550E-004  3.454343936821355E-004 
 3.539666232060837E-004  3.627095987992782E-004  3.716685258896054E-004  3.808487384790817E-004 
 3.902557023195231E-004  3.998950181668071E-004  4.097724251155318E-004  4.198938040158788E-004 
 4.302651809750941E-004  4.408927309451745E-004  4.517827813995159E-004  4.629418161000849E-004 
 4.743764789577491E-004  4.860935779880115E-004  4.981000893643192E-004  5.104031615716081E-004 
 5.230101196624231E-004  5.359284696180812E-004  5.491659028176572E-004  5.627303006172567E-004 
 5.766297390425045E-004  5.908724935968600E-004  6.054670441886859E-004  6.204220801801462E-004 
 6.357465055605924E-004  6.514494442479507E-004  6.675402455208697E-004  6.840284895852362E-004 
 7.009239932779916E-004  7.182368159119533E-004  7.359772652649860E-004  7.541559037170384E-004 
 7.727835545388465E-004  7.918713083359443E-004  8.114305296518590E-004  8.314728637342482E-004 
 8.520102434684932E-004  8.730548964821666E-004  8.946193524252738E-004  9.167164504301778E-004 
 9.393593467557905E-004  9.625615226206689E-004  9.863367922294058E-004  1.010699310997466E-003 
 1.035663583979103E-003  1.061244474503382E-003  1.087457213023625E-003  1.114317406185294E-003 
 1.141841046118069E-003  1.170044519957182E-003  1.198944619600140E-003  1.228558551704270E-003 
 1.258903947931351E-003  1.289998875445248E-003  1.321861847668749E-003  1.354511835306169E-003 
 1.387968277638248E-003  1.422251094095897E-003  1.457380696120059E-003  1.493377999314239E-003 
 1.530264435897305E-003  1.568061967463972E-003  1.606793098060308E-003  1.646480887582421E-003 
 1.687148965505690E-003  1.728821544953691E-003  1.771523437114037E-003  1.815280066010758E-003 
 1.860117483641232E-003  1.906062385487169E-003  1.953142126408695E-003  2.001384736930988E-003 
 2.050818939933185E-003  2.101474167749538E-003  2.153380579692941E-003  2.206569080011375E-003 
 2.261071336287638E-003  2.316919798293946E-003  2.374147717311809E-003  2.432789165929420E-003 
 2.492879058327839E-003  2.554453171068652E-003  2.617548164393893E-003  2.682201604054560E-003 
 2.748451983674686E-003  2.816338747671381E-003  2.885902314738987E-003  2.957184101912977E-003 
 3.030226549230196E-003  3.105073144996156E-003  3.181768451677463E-003  3.260358132434020E-003 
 3.340888978305126E-003  3.423408936069273E-003  3.507967136790059E-003  3.594613925068970E-003 
 3.683400889018200E-003  3.774380890976936E-003  3.867608098984041E-003  3.963138019028846E-003 
 4.061027528098852E-003  4.161334908042858E-003  4.264119880271513E-003  4.369443641314291E-003 
 4.477368899254867E-003  4.587959911066358E-003  4.701282520869618E-003  4.817404199135068E-003 
 4.936394082853694E-003  5.058323016700390E-003  5.183263595212822E-003  5.311290206014606E-003 
 5.442479074103055E-003  5.576908307233460E-003  5.714657942422096E-003  5.855809993599937E-003 
 6.000448500441954E-003  6.148659578402741E-003  6.300531469989218E-003  6.456154597297977E-003 
 6.615621615851443E-003  6.779027469762839E-003  6.946469448266089E-003  7.118047243638225E-003 
 7.293863010556013E-003  7.474021426916818E-003  7.658629756161530E-003  7.847797911138824E-003 
 8.041638519543953E-003  8.240266990976708E-003  8.443801585653700E-003  8.652363484819351E-003 
 8.866076862894418E-003  9.085068961407880E-003  9.309470164754696E-003  9.539414077824281E-003 
 9.775037605546332E-003  1.001648103440354E-002  1.026388811595312E-002  1.051740615241724E-002 
 1.077718608438205E-002  1.104338258066613E-002  1.131615413040861E-002  1.159566313742962E-002 
 1.188207601692433E-002  1.217556329454216E-002  1.247629970791736E-002  1.278446431070304E-002 
 1.310024057917748E-002  1.342381652148314E-002  1.375538478956357E-002  1.409514279386583E-002 
 1.444329282087449E-002  1.480004215354997E-002  1.516560319474268E-002  1.554019359365273E-002 
 1.592403637541605E-002  1.631736007388881E-002  1.672039886771386E-002  1.713339271974635E-002 
 1.755658751992406E-002  1.799023523166626E-002  1.843459404188836E-002  1.888992851472311E-002 
 1.935650974903683E-002  1.983461553983801E-002  2.032453054367195E-002  2.082654644810072E-002 
 2.134096214536879E-002  2.186808391035928E-002  2.240822558294523E-002  2.296170875484401E-002 
 2.352886296108853E-002  2.411002587622749E-002  2.470554351537143E-002  2.531577044020095E-002 
 2.594106997007213E-002  2.658181439833367E-002  2.723838521397332E-002  2.791117332875638E-002 
 2.860057930997871E-002  2.930701361893412E-002  3.003089685532311E-002  3.077266000764947E-002 
 3.153274470983630E-002  3.231160350417136E-002  3.310970011072332E-002  3.392750970345822E-002 
 3.476551919313418E-002  3.562422751720377E-002  3.650414593688017E-002  3.740579834152095E-002 
 3.832972156055616E-002  3.927646568310002E-002  4.024659438547307E-002  4.124068526679571E-002 
 4.225933019288516E-002  4.330313564864834E-002  4.437272309917092E-002  4.546872935971966E-002 
 4.659180697490443E-002  4.774262460718544E-002  4.892186743498175E-002  5.013023756062764E-002 
 5.136845442837441E-002  5.263725525275475E-002  5.393739545749771E-002  5.526964912529911E-002 
 5.663480945869391E-002  5.803368925232336E-002  5.946712137685552E-002  6.093595927486415E-002 
 6.244107746895387E-002  6.398337208243676E-002  6.556376137287244E-002  6.718318627878161E-002 
 6.884261097986760E-002  7.054302347106998E-002  7.228543615080681E-002  7.407088642373232E-002 
 7.590043731839817E-002  7.777517812016206E-002  7.969622501972942E-002  8.166472177771845E-002 
 8.368184040562686E-002  8.574878186364662E-002  8.786677677567832E-002  9.003708616203769E-002 
 9.226100219024022E-002  9.453984894433932E-002  9.687498321326228E-002  9.926779529863192E-002 
 1.017197098425083E-001  1.042321866756169E-001  1.068067216865039E-001  1.094448477121617E-001 
 1.121481354506527E-001  1.149181943962840E-001  1.177566737978714E-001  1.206652636406786E-001 
 1.236456956526028E-001  1.266997443352234E-001  1.298292280203028E-001  1.330360099524042E-001 
 1.363219993982278E-001  1.396891527833648E-001  1.431394748571137E-001  1.466750198860840E-001 
 1.502978928772721E-001  1.540102508313396E-001  1.578143040268745E-001  1.617123173363378E-001 
 1.657066115745457E-001  1.697995648804350E-001  1.739936141329834E-001  1.782912564020684E-001 
 1.826950504351991E-001  1.872076181809470E-001  1.918316463500170E-001  1.965698880148623E-001 
 2.014251642488297E-001  2.064003658057749E-001  2.114984548411789E-001  2.167224666757551E-001 
 2.220755116026462E-001  2.275607767392316E-001  2.331815279246923E-001  2.389411116644302E-001 
 2.448429571225411E-001  2.508905781634774E-001  2.570875754441121E-001  2.634376385575852E-001 
 2.699445482299554E-001  2.766121785712359E-001  2.834444993819399E-001  2.904455785166735E-001 
 2.976195843060438E-001  3.049707880383962E-001  3.125035665029410E-001  3.202224045955638E-001 
 3.281318979890759E-001  3.362367558693936E-001  3.445418037393774E-001  3.530519862917483E-001 
 3.617723703531534E-001  3.707081479008707E-001  3.798646391540305E-001  3.892472957411354E-001 
 3.988617039459291E-001  4.087135880333927E-001  4.188088136578242E-001  4.291533913551696E-001 
 4.397534801216321E-001  4.506153910806338E-001  4.617455912403494E-001  4.731507073439836E-001 
 4.848375298153800E-001  4.968130168018130E-001  5.090842983168206E-001  5.216586804852482E-001 
 5.345436498932354E-001  5.477468780455882E-001  5.612762259333149E-001  5.751397487138662E-001 
 5.893457005071046E-001  6.039025393096352E-001  6.188189320305781E-001  6.341037596517286E-001 
 6.497661225151348E-001  6.658153457412389E-001  6.822609847810476E-001  6.991128311051596E-001 
 7.163809180334374E-001  7.340755267088780E-001  7.522071922185706E-001  7.707867098663692E-001 
 7.898251416000679E-001  8.093338225976123E-001  8.293243680157685E-001  8.498086799057564E-001 
 8.707989542994176E-001  8.923076884706210E-001  9.143476883758382E-001  9.369320762787164E-001 
 9.600742985628019E-001  9.837881337373122E-001  1.008087700640623E+000  1.032987466846443E+000 
 1.058502257277562E+000  1.084647263032310E+000  1.111438050429210E+000  1.138890570274809E+000 
 1.167021167360601E+000  1.195846590194412E+000  1.225384000972216E+000  1.255650985796225E+000 
 1.286665565145390E+000  1.318446204604474E+000  1.351011825858198E+000  1.384381817956913E+000 
 1.418576048860435E+000  1.453614877267300E+000  1.489519164735801E+000  1.526310288104774E+000 
 1.564010152220946E+000  1.602641202980818E+000  1.642226440694437E+000  1.682789433779589E+000 
 1.724354332793952E+000  1.766945884813950E+000  1.810589448168869E+000  1.855311007538629E+000 
 1.901137189424849E+000
    </PP_RAB>
  </PP_MESH>
  <PP_LOCAL type="real" size="565" columns="4">
-7.579493206043600E+000 -7.579493309693800E+000 -7.579493410842600E+000 -7.579493509550200E+000 
-7.579493605875200E+000 -7.579493699875000E+000 -7.579493791605200E+000 -7.579493881120800E+000 