<UPF version="2.0.1">
  <PP_INFO>
    Generated using FHI98PP, converted with fhi2upf.x v.5.0.2
    Origin: Abinit web site
    Date: 08-Sep-2012 (PG)
    Pseudopotential type: SL
    Element: Pa
    Functional: PBE

    Suggested minimum cutoff for wavefunctions:   0. Ry
    Suggested minimum cutoff for charge density:   0. Ry
    The Pseudo was generated with a Non-Relativistic Calculation
    L component and cutoff radius for Local Potential:  1   0.0000

    Valence configuration: 
    nl pn  l   occ       Rcut    Rcut US       E pseu
    7s  7  0  2.00      0.000      0.000     0.000000
    7p  7  1  0.00      0.000      0.000     0.000000
    6d  6  2  1.00      0.000      0.000     0.000000
    5f  5  3  2.00      0.000      0.000     0.000000

    Generation configuration: not available.
    Comment:
    protactinium, fhi98PP : Trouiller-Martins-type, GGA Perdew/Burke/Ernzerhof (1996
  </PP_INFO>
  <!--                               -->
  <!-- END OF HUMAN READABLE SECTION -->
  <!--                               -->
  <PP_HEADER generated="Generated using FHI98PP, converted with fhi2upf.x v.5.0.2"
             author="unknown"
             date="unknown"
             comment="protactinium, fhi98PP : Trouiller-Martins-type, GGA Perdew/Burke/Ernzerhof (1996"
             element="Pa"
             pseudo_type="SL"
             relativistic="no"
             is_ultrasoft="F"
             is_paw="F"
             is_coulomb="F"
             has_so="F"
             has_wfc="F"
             has_gipaw="F"
             paw_as_gipaw="F"
             core_correction="T"
             functional="PBE"
             z_valence="5.000000000000000E+000"
             total_psenergy="0.000000000000000E+000"
             wfc_cutoff="0.000000000000000E+000"
             rho_cutoff="0.000000000000000E+000"
             l_max="3"
             l_max_rho="0"
             l_local="1"
             mesh_size="573"
             number_of_wfc="4"
             number_of_proj="3"/>
  <PP_MESH dx="2.439988682353512E-002" mesh="573" xmin="-5.075173815233822E+000" rmax="7.909913516786800E+001"
zmesh="9.100000000000000E+001">
    <PP_R type="real" size="573" columns="4">
 6.868131868131901E-005  7.037774725274701E-005  7.211607760989000E-005  7.389734472685400E-005 
 7.572260914160800E-005  7.759295758740500E-005  7.950950363981400E-005  8.147338837971800E-005 
 8.348578107269700E-005  8.554787986519200E-005  8.766091249786299E-005  8.982613703656000E-005 
 9.204484262136300E-005  9.431835023411000E-005  9.664801348489300E-005  9.903521941797000E-005 
 1.014813893375900E-004  1.039879796542300E-004  1.065564827516900E-004  1.091884278756600E-004 
 1.118853820441900E-004  1.146489509806800E-004  1.174807800699000E-004  1.203825553376300E-004 
 1.233560044544700E-004  1.264028977644900E-004  1.295250493392800E-004  1.327243180579600E-004 
 1.360026087139900E-004  1.393618731492200E-004  1.428041114160100E-004  1.463313729679800E-004 
 1.499457578802900E-004  1.536494180999400E-004  1.574445587270000E-004  1.613334393275600E-004 
 1.653183752789500E-004  1.694017391483400E-004  1.735859621053100E-004  1.778735353693100E-004 
 1.822670116929300E-004  1.867690068817500E-004  1.913822013517200E-004  1.961093417251100E-004 
 2.009532424657200E-004  2.059167875546300E-004  2.110029322072200E-004  2.162147046327400E-004 
 2.215552078371700E-004  2.270276214707500E-004  2.326352037210800E-004  2.383812932529900E-004 
 2.442693111963400E-004  2.503027631828900E-004  2.564852414335000E-004  2.628204268969100E-004 
 2.693120914412600E-004  2.759641000998600E-004  2.827804133723300E-004  2.897650895826300E-004 
 2.969222872953200E-004  3.042562677915100E-004  3.117713976059600E-004  3.194721511268300E-004 
 3.273631132596600E-004  3.354489821571800E-004  3.437345720164600E-004  3.522248159452700E-004 
 3.609247688991100E-004  3.698396106909200E-004  3.789746490749900E-004  3.883353229071400E-004 
 3.979272053829500E-004  4.077560073559000E-004  4.178275807376000E-004  4.281479219818100E-004 
 4.387231756547600E-004  4.495596380934400E-004  4.606637611543500E-004  4.720421560548600E-004 
 4.837015973094100E-004  4.956490267629500E-004  5.078915577240000E-004  5.204364791997800E-004 
 5.332912602360200E-004  5.464635543638500E-004  5.599612041566300E-004  5.737922458993000E-004 
 5.879649143730200E-004  6.024876477580300E-004  6.173690926576500E-004  6.326181092463000E-004 
 6.482437765446800E-004  6.642553978253300E-004  6.806625061516200E-004  6.974748700535600E-004 
 7.147024993438900E-004  7.323556510776800E-004  7.504448356593000E-004  7.689808231000800E-004 
 7.879746494306600E-004  8.074376232715900E-004  8.273813325664000E-004  8.478176514807899E-004 
 8.687587474723700E-004  8.902170885349300E-004  9.122054506217500E-004  9.347369252521000E-004 
 9.578249273058300E-004  9.814832030102900E-004  1.005725838124600E-003  1.030567266326300E-003 
 1.056022277804600E-003  1.082106028066400E-003  1.108834046959600E-003  1.136222247919500E-003 
 1.164286937443100E-003  1.193044824797900E-003  1.222513031970500E-003  1.252709103860100E-003 
 1.283651018725500E-003  1.315357198888000E-003  1.347846521700500E-003  1.381138330786500E-003 
 1.415252447557000E-003  1.450209183011600E-003  1.486029349832000E-003  1.522734274772800E-003 
 1.560345811359700E-003  1.598886352900300E-003  1.638378845817000E-003  1.678846803308600E-003 
 1.720314319350400E-003  1.762806083038300E-003  1.806347393289400E-003  1.850964173903600E-003 
 1.896682988999000E-003  1.943531058827300E-003  1.991536275980300E-003  2.040727221997100E-003 
 2.091133184380400E-003  2.142784174034600E-003  2.195710943133200E-003  2.249945003428600E-003 
 2.305518645013300E-003  2.362464955545100E-003  2.420817839947100E-003  2.480612040593800E-003 
 2.541883157996500E-003  2.604667671999000E-003  2.669002963497300E-003  2.734927336695700E-003 
 2.802480041912100E-003  2.871701298947300E-003  2.942632321031300E-003  3.015315339360800E-003 
 3.089793628243000E-003  3.166111530860600E-003  3.244314485672900E-003  3.324449053469000E-003 
 3.406562945089700E-003  3.490705049833400E-003  3.576925464564300E-003  3.665275523539000E-003 
 3.755807828970400E-003  3.848576282346000E-003  3.943636116520000E-003  4.041043928598000E-003 
 4.140857713634400E-003  4.243136899161100E-003  4.347942380570400E-003  4.455336557370500E-003 
 4.565383370337600E-003  4.678148339584900E-003  4.793698603572600E-003  4.912102959080900E-003 
 5.033431902170200E-003  5.157757670153800E-003  5.285154284606600E-003  5.415697595436400E-003 
 5.549465326043700E-003  5.686537119596900E-003  5.826994586451000E-003  5.970921352736300E-003 
 6.118403110148900E-003  6.269527666969600E-003  6.424385000343700E-003  6.583067309852200E-003 
 6.745669072405600E-003  6.912287098494000E-003  7.083020589826800E-003  7.257971198395500E-003 
 7.437243086995900E-003  7.620942991244700E-003  7.809180283128400E-003  8.002067036121699E-003 
 8.199718091913900E-003  8.402251128784200E-003  8.609786731665100E-003  8.822448463937300E-003 
 9.040362940996499E-003  9.263659905639101E-003  9.492472305308400E-003  9.726936371249500E-003 
 9.967191699619401E-003  1.021338133460000E-002  1.046565185356500E-002  1.072415345434800E-002 
 1.098904004467000E-002  1.126046933377300E-002  1.153860292631800E-002  1.182360641859800E-002 
 1.211564949713700E-002  1.241490603971600E-002  1.272155421889700E-002  1.303577660810400E-002 
 1.335776029032400E-002  1.368769696949500E-002  1.402578308464200E-002  1.437221992683200E-002 
 1.472721375902500E-002  1.509097593887300E-002  1.546372304456300E-002  1.584567700376400E-002 
 1.623706522575700E-002  1.663812073683300E-002  1.704908231903300E-002  1.747019465231300E-002 
 1.790170846022500E-002  1.834388065919300E-002  1.879697451147500E-002  1.926125978190800E-002 
 1.973701289852100E-002  2.022451711711500E-002  2.072406268990700E-002  2.123594703834800E-002 
 2.176047493019500E-002  2.229795866097100E-002  2.284871823989700E-002  2.341308158042300E-002 
 2.399138469545900E-002  2.458397189743700E-002  2.519119600330400E-002  2.581341854458500E-002 
 2.645100998263600E-002  2.710434992920800E-002  2.777382737245900E-002  2.845984090855900E-002 
 2.916279897900000E-002  2.988312011378100E-002  3.062123318059200E-002  3.137757764015200E-002 
 3.215260380786400E-002  3.294677312191900E-002  3.376055841803000E-002  3.459444421095500E-002 
 3.544892698296600E-002  3.632451547944500E-002  3.722173101178700E-002  3.814110776777900E-002 
 3.908319312964300E-002  4.004854799994500E-002  4.103774713554300E-002  4.205137948979100E-002 
 4.309004856318900E-002  4.415437276270000E-002  4.524498576993900E-002  4.636253691845600E-002 
 4.750769158034200E-002  4.868113156237600E-002  4.988355551196700E-002  5.111567933311300E-002 
 5.237823661264100E-002  5.367197905697300E-002  5.499767693968000E-002  5.635611956009000E-002 
 5.774811571322400E-002  5.917449417134100E-002  6.063610417737300E-002  6.213381595055400E-002 
 6.366852120453299E-002  6.524113367828500E-002  6.685258968013900E-002  6.850384864523799E-002 
 7.019589370677499E-002  7.192973228133299E-002  7.370639666868201E-002  7.552694466639800E-002 
 7.739246019965799E-002  7.930405396659000E-002  8.126286409956400E-002  8.327005684282400E-002 
 8.532682724684100E-002  8.743439987983800E-002  8.959402955687000E-002  9.180700208692499E-002 
 9.407463503847199E-002  9.639827852392201E-002  9.877931600346300E-002  1.012191651087500E-001 
 1.037192784869300E-001  1.062811446655600E-001  1.089062889388000E-001  1.115962742755900E-001 
 1.143527022502000E-001  1.171772139957800E-001  1.200714911814700E-001  1.230372570136500E-001 
 1.260762772618900E-001  1.291903613102600E-001  1.323813632346200E-001  1.356511829065200E-001 
 1.390017671243100E-001  1.424351107722800E-001  1.459532580083600E-001  1.495583034811600E-001 
 1.532523935771500E-001  1.570377276985000E-001  1.609165595726600E-001  1.648911985941000E-001 
 1.689640111993700E-001  1.731374222760000E-001  1.774139166062200E-001  1.817960403463900E-001 
 1.862864025429500E-001  1.908876766857600E-001  1.956026022998900E-001  2.004339865767000E-001 
 2.053847060451500E-001  2.104577082844600E-001  2.156560136790900E-001  2.209827172169600E-001 
 2.264409903322200E-001  2.320340827934300E-001  2.377653246384200E-001  2.436381281569900E-001 
 2.496559899224700E-001  2.558224928735600E-001  2.621413084475300E-001  2.686161987661900E-001 
 2.752510188757100E-001  2.820497190419400E-001  2.890163471022800E-001  2.961550508757000E-001 
 3.034700806323300E-001  3.109657916239500E-001  3.186466466770600E-001  3.265172188499900E-001 
 3.345821941555800E-001  3.428463743512200E-001  3.513146797977000E-001  3.599921523887000E-001 
 3.688839585527000E-001  3.779953923289600E-001  3.873318785194800E-001  3.968989759189100E-001 
 4.067023806241100E-001  4.167479294255200E-001  4.270416032823300E-001  4.375895308834100E-001 
 4.483979922962300E-001  4.594734227059500E-001  4.708224162467800E-001  4.824517299280800E-001 
 4.943682876573000E-001  5.065791843624400E-001  5.190916902161899E-001  5.319132549645300E-001 
 5.450515123621500E-001  5.585142847175000E-001  5.723095875500200E-001  5.864456343625100E-001 
 6.009308415312600E-001  6.157738333170800E-001  6.309834470000100E-001  6.465687381409100E-001 
 6.625389859729900E-001  6.789036989265300E-001  6.956726202900100E-001  7.128557340111800E-001 
 7.304632706412501E-001  7.485057134260900E-001  7.669938045477100E-001  7.859385515200400E-001 
 8.053512337425900E-001  8.252434092160300E-001  8.456269214236700E-001  8.665139063828300E-001 
 8.879167998704900E-001  9.098483448272900E-001  9.323215989445200E-001  9.553499424384500E-001 
 9.789470860166800E-001  1.003127079041300E+000  1.027904317893600E+000  1.053293554545600E+000 
 1.079309905342900E+000  1.105968860004800E+000  1.133286290846900E+000  1.161278462230900E+000 
 1.189962040248000E+000  1.219354102642100E+000  1.249472148977400E+000  1.280334111057100E+000 
 1.311958363600200E+000  1.344363735181100E+000  1.377569519440100E+000  1.411595486570300E+000 
 1.446461895088600E+000  1.482189503897200E+000  1.518799584643500E+000  1.556313934384200E+000 
 1.594754888563500E+000  1.634145334311000E+000  1.674508724068500E+000  1.715869089553000E+000 
 1.758251056064900E+000  1.801679857149700E+000  1.846181349621300E+000  1.891782028957000E+000 
 1.938509045072200E+000  1.986390218485500E+000  2.035454056882100E+000  2.085729772087100E+000 
 2.137247297457600E+000  2.190037305704900E+000  2.244131227155800E+000  2.299561268466500E+000 
 2.356360431797600E+000  2.414562534463000E+000  2.474202229064300E+000  2.535315024122200E+000 
 2.597937305218000E+000  2.662106356656900E+000  2.727860383666300E+000  2.795238535142800E+000 
 2.864280926960900E+000  2.935028665856800E+000  3.007523873903500E+000  3.081809713588900E+000 
 3.157930413514500E+000  3.235931294728300E+000  3.315858797708100E+000  3.397760510011500E+000 
 3.481685194608800E+000  3.567682818915600E+000  3.655804584542800E+000  3.746102957781100E+000 
 3.838631700838200E+000  3.933445903849000E+000  4.030602017674000E+000  4.130157887510600E+000 
 4.232172787332100E+000  4.336707455179200E+000  4.443824129322100E+000  4.553586585316400E+000 
 4.666060173973700E+000  4.781311860270800E+000  4.899410263219500E+000  5.020425696721000E+000 
 5.144430211430000E+000  5.271497637652400E+000  5.401703629302400E+000  5.535125708946100E+000 
 5.671843313957100E+000  5.811937843811900E+000  5.955492708554000E+000  6.102593378455300E+000 
 6.253327434903100E+000  6.407784622545200E+000  6.566056902722100E+000  6.728238508219400E+000 
 6.894425999372400E+000  7.064718321556900E+000  7.239216864099300E+000  7.418025520642600E+000 
 7.601250751002400E+000  7.789001644552200E+000  7.981389985172600E+000  8.178530317806400E+000 
 8.380540016656200E+000  8.587539355067600E+000  8.799651577137800E+000  9.017002971093101E+000 
 9.239722944479100E+000  9.467944101207699E+000  9.701802320507600E+000  9.941436837824099E+000 
 1.018699032771800E+001  1.043860898881300E+001  1.069644263083700E+001  1.096064476381800E+001 
 1.123137268948500E+001  1.150878759491500E+001  1.179305464850900E+001  1.208434309832800E+001 
 1.238282637285600E+001  1.268868218426600E+001  1.300209263421700E+001  1.332324432228200E+001 
 1.365232845704300E+001  1.398954096993200E+001  1.433508263188900E+001  1.468915917289700E+001 
 1.505198140446700E+001  1.542376534515700E+001  1.580473234918300E+001  1.619510923820800E+001 
 1.659512843639100E+001  1.700502810877000E+001  1.742505230305700E+001  1.785545109494200E+001 
 1.829648073698700E+001  1.874840381119100E+001  1.921148938532700E+001  1.968601317314500E+001 
 2.017225769852200E+001  2.067051246367500E+001  2.118107412152800E+001  2.170424665233000E+001 
 2.224034154464200E+001  2.278967798079500E+001  2.335258302692100E+001  2.392939182768600E+001 
 2.452044780582900E+001  2.512610286663300E+001  2.574671760743900E+001  2.638266153234300E+001 
 2.703431327219200E+001  2.770206081001500E+001  2.838630171202200E+001  2.908744336430900E+001 
 2.980590321540800E+001  3.054210902482800E+001  3.129649911774100E+001  3.206952264595000E+001 
 3.286163985530500E+001  3.367332235973100E+001  3.450505342201600E+001  3.535732824154000E+001 
 3.623065424910600E+001  3.712555140905900E+001  3.804255252886300E+001  3.898220357632500E+001 
 3.994506400466100E+001  4.093170708557600E+001  4.194272025058900E+001  4.297870544077900E+001 
 4.404027946516600E+001  4.512807436795600E+001  4.624273780484400E+001  4.738493342862400E+001 
 4.855534128431100E+001  4.975465821403400E+001  5.098359827192000E+001  5.224289314923700E+001 
 5.353329261002300E+001  5.485556493749000E+001  5.621049739144600E+001  5.759889667701500E+001 
 5.902158942493700E+001  6.047942268373300E+001  6.197326442402100E+001  6.350400405529500E+001 
 6.507255295546101E+001  6.667984501346000E+001  6.832683718529300E+001  7.001451006377000E+001 
 7.174386846234501E+001  7.351594201336501E+001  7.533178578109499E+001  7.719248088988800E+001 
 7.909913516786800E+001
    </PP_R>
    <PP_RAB type="real" size="573" columns="4">
 1.675816402715332E-006  1.717209067862387E-006  1.759624131838591E-006  1.803086847894997E-006 
 1.847623093038021E-006  1.893259383436043E-006  1.940022890206916E-006  1.987941455595041E-006 
 2.037043609548237E-006  2.087358586704064E-006  2.138916343795672E-006  2.191747577487421E-006 
 2.245883742651359E-006  2.301357071094831E-006  2.358200590750885E-006  2.416448145342436E-006 
 2.476134414532300E-006  2.537294934571285E-006  2.599966119455208E-006  2.664185282605831E-006 
 2.729990659086225E-006  2.797421428365618E-006  2.866517737646181E-006  2.937320725766126E-006 
 3.009872547692562E-006  3.084216399620436E-006  3.160396544691234E-006  3.238458339345103E-006 
 3.318448260326887E-006  3.400413932356826E-006  3.484404156486144E-006  3.570468939151218E-006 
 3.658659521948276E-006  3.749028412140565E-006  3.841629413920229E-006  3.936517660444135E-006 
 4.033749646657087E-006  4.133383262929514E-006  4.235477829524021E-006  4.340094131913236E-006 
 4.447294456971444E-006  4.557142630058753E-006  4.669704053020978E-006  4.785045743130658E-006 
 4.903236372985980E-006  5.024346311398897E-006  5.148447665290222E-006  5.275614322622931E-006 
 5.405921996391749E-006  5.539448269702672E-006  5.676272641964388E-006  5.816476576220893E-006 
 5.960143547653576E-006  6.107359093280629E-006  6.258210862884481E-006  6.412788671197790E-006 
 6.571184551376286E-006  6.733492809795301E-006  6.899810082197330E-006  7.070235391227687E-006 
 7.244870205390988E-006  7.423818499464038E-006  7.607186816400793E-006  7.795084330765962E-006 
 7.987622913735814E-006  8.184917199705244E-006  8.387084654537908E-006  8.594245645505077E-006 
 8.806523512948852E-006  9.024044643718737E-006  9.246938546418695E-006  9.475337928515182E-006 
 9.709378775349595E-006  9.949200431100515E-006  1.019494568174892E-005  1.044676084008791E-005 
 1.070479583283806E-005  1.096920428990934E-005  1.124014363587015E-005  1.151777518367609E-005 
 1.180226423071276E-005  1.209378015721131E-005  1.239249652709456E-005  1.269859119131372E-005 
 1.301224639373930E-005  1.333364887966467E-005  1.366299000699222E-005  1.400046586016495E-005 
 1.434627736691121E-005  1.470063041787383E-005  1.506373598919523E-005  1.543581026812850E-005 
 1.581707478175118E-005  1.620775652886035E-005  1.660808811512331E-005  1.701830789156673E-005 
 1.743866009648860E-005  1.786939500087177E-005  1.831076905739333E-005  1.876304505311084E-005 
 1.922649226592287E-005  1.970138662489098E-005  2.018801087452583E-005  2.068665474312662E-005 
 2.119761511528196E-005  2.172119620862924E-005  2.225770975498256E-005  2.280747518593045E-005 
 2.337081982302301E-005  2.394807907265182E-005  2.453959662574524E-005  2.514572466240170E-005 
 2.576682406156401E-005  2.640326461588528E-005  2.705542525189667E-005  2.772369425561846E-005 
 2.840846950373196E-005  2.911015870047305E-005  2.982917962037697E-005  3.056596035699854E-005 
 3.132093957781776E-005  3.209456678538938E-005  3.288730258498768E-005  3.369961895883681E-005 
 3.453199954712188E-005  3.538493993593438E-005  3.625894795235228E-005  3.715454396677415E-005 
 3.807226120275376E-005  3.901264605446216E-005  3.997625841200890E-005  4.096367199478357E-005 
 4.197547469305662E-005  4.301226891797377E-005  4.407467196024905E-005  4.516331635766602E-005 
 4.627885027169990E-005  4.742193787341150E-005  4.859325973888393E-005  4.979351325443647E-005 
 5.102341303182036E-005  5.228369133370643E-005  5.357509850964764E-005  5.489840344283618E-005 
 5.625439400787457E-005  5.764387753986837E-005  5.906768131510401E-005  6.052665304358723E-005 
 6.202166137376464E-005  6.355359640969629E-005  6.512337024101396E-005  6.673191748596740E-005 
 6.838019584787121E-005  7.006918668531292E-005  7.179989559644020E-005  7.357335301767292E-005 
 7.539061483720915E-005  7.725276302368816E-005  7.916090627037432E-005  8.111618065525207E-005 
 8.311975031743717E-005  8.517280815027750E-005  8.727657651158971E-005  8.943230795142504E-005 
 9.164128595782491E-005  9.390482572098395E-005  9.622427491629355E-005  9.860101450672494E-005 
 1.010364595650418E-004  1.035320601162966E-004  1.060893020011696E-004  1.087097077605988E-004 
 1.113948375422868E-004  1.141462900295803E-004  1.169657033933098E-004  1.198547562671259E-004 
 1.228151687469240E-004  1.258487034149729E-004  1.289571663893228E-004  1.321424083991395E-004 
 1.354063258865987E-004  1.387508621359958E-004  1.421780084307562E-004  1.456898052389950E-004 
 1.492883434283985E-004  1.529757655110804E-004  1.567542669192029E-004  1.606260973121075E-004 
 1.645935619157178E-004  1.686590228950356E-004  1.728249007605429E-004  1.770936758093278E-004 
 1.814678896018189E-004  1.859501464749839E-004  1.905431150929149E-004  1.952495300357106E-004 
 2.000721934275925E-004  2.050139766052547E-004  2.100778218274028E-004  2.152667440265414E-004 
 2.205838326039957E-004  2.260322532693141E-004  2.316152499250665E-004  2.373361465982152E-004 
 2.431983494191920E-004  2.492053486498461E-004  2.553607207615066E-004  2.616681305643144E-004 
 2.681313333892434E-004  2.747541773239491E-004  2.815406055038703E-004  2.884946584598146E-004 
 2.956204765237630E-004  3.029223022938930E-004  3.104044831605525E-004  3.180714738946241E-004 
 3.259278392998173E-004  3.339782569305227E-004  3.422275198767181E-004  3.506805396176570E-004 
 3.593423489462193E-004  3.682181049651929E-004  3.773130921578292E-004  3.866327255341347E-004 
 3.961825538548285E-004  4.059682629350380E-004  4.159956790295389E-004  4.262707723015657E-004 
 4.367996603774112E-004  4.475886119887440E-004  4.586440507048643E-004  4.699725587572640E-004 
 4.815808809585653E-004  4.934759287182548E-004  5.056647841575777E-004  5.181547043262770E-004 
 5.309531255231313E-004  5.440676677235572E-004  5.575061391163294E-004  5.712765407525160E-004 
 5.853870713090922E-004  5.998461319704308E-004  6.146623314301078E-004  6.298444910164167E-004 
 6.454016499445162E-004  6.613430706981674E-004  6.776782445444014E-004  6.944168971846545E-004 
 7.115689945451055E-004  7.291447487103624E-004  7.471546240035232E-004  7.656093432163950E-004 
 7.845198939938460E-004  8.038975353755125E-004  8.237538044992779E-004  8.441005234704018E-004 
 8.649498064001306E-004  8.863140666182076E-004  9.082060240636703E-004  9.306387128580639E-004 
 9.536254890656546E-004  9.771800386455718E-004  1.001316385600102E-003  1.026048900324426E-003 
 1.051392308162444E-003  1.077361698174062E-003  1.103972532118969E-003  1.131240653662295E-003 
 1.159182297807757E-003  1.187814100563598E-003  1.217153108847526E-003  1.247216790636070E-003 
 1.278023045364784E-003  1.309590214585288E-003  1.341937092885539E-003  1.375082939079810E-003 
 1.409047487675076E-003  1.443850960620659E-003  1.479514079347986E-003  1.516058077107879E-003 
 1.553504711612451E-003  1.591876277989280E-003  1.631195622055624E-003  1.671486153920387E-003 
 1.712771861922211E-003  1.755077326911706E-003  1.798427736886427E-003  1.842848901987511E-003 
 1.888367269866601E-003  1.935009941432318E-003  1.982804686985677E-003  2.031779962754242E-003 
 2.081964927834253E-003  2.133389461551760E-003  2.186084181252088E-003  2.240080460529023E-003 
 2.295410447904088E-003  2.352107085967313E-003  2.410204130990709E-003  2.469736173026215E-003 
 2.530738656499813E-003  2.593247901315428E-003  2.657301124477935E-003  2.722936462252580E-003 
 2.790192992870290E-003  2.859110759794188E-003  2.929730795560963E-003  3.002095146211262E-003 
 3.076246896322750E-003  3.152230194661954E-003  3.230090280470021E-003  3.309873510397750E-003 
 3.391627386104549E-003  3.475400582541320E-003  3.561242976930205E-003  3.649205678460223E-003 
 3.739341058718321E-003  3.831702782868526E-003  3.926345841605551E-003  4.023326583893093E-003 
 4.122702750515148E-003  4.224533508453009E-003  4.328879486111866E-003  4.435802809418740E-003 
 4.545367138811486E-003  4.657637707140108E-003  4.772681358506266E-003  4.890566588061438E-003 
 5.011363582786689E-003  5.135144263281394E-003  5.261982326584537E-003  5.391953290051090E-003 
 5.525134536315379E-003  5.661605359362470E-003  5.801447011738535E-003  5.944742752928502E-003 
 6.091577898925893E-003  6.242039873029484E-003  6.396218257893143E-003  6.554204848863250E-003 
 6.716093708630054E-003  6.881981223233215E-003  7.051966159447176E-003  7.226149723585366E-003 
 7.404635621757930E-003  7.587530121615386E-003  7.774942115619248E-003  7.966983185875205E-003 
 8.163767670566206E-003  8.365412732029122E-003  8.572038426510361E-003  8.783767775645089E-003 
 9.000726839703500E-003  9.223044792644380E-003  9.450853999022566E-003  9.684290092798396E-003 
 9.923492058090587E-003  1.016860231192529E-002  1.041976678902984E-002  1.067713502871903E-002 
 1.094086026392838E-002  1.121109951244749E-002  1.148801367040478E-002  1.177176760806388E-002 
 1.206253026798297E-002  1.236047476560227E-002  1.266577849231259E-002  1.297862322107271E-002 
 1.329919521463311E-002  1.362768533643467E-002  1.396428916424455E-002  1.430920710660150E-002 
 1.466264452213446E-002  1.502481184183113E-002  1.539592469432432E-002  1.577620403427412E-002 
 1.616587627392068E-002  1.656517341788670E-002  1.697433320130837E-002  1.739359923138085E-002 
 1.782322113239581E-002  1.826345469436601E-002  1.871456202531674E-002  1.917681170734210E-002 
 1.965047895651358E-002  2.013584578673941E-002  2.063320117767197E-002  2.114284124676036E-002 
 2.166506942555544E-002  2.220019664036663E-002  2.274854149738359E-002  2.331043047236897E-002 
 2.388619810503649E-002  2.447618719823109E-002  2.508074902202691E-002  2.570024352287165E-002 
 2.633503953788717E-002  2.698551501447128E-002  2.765205723532826E-002  2.833506304904286E-002 
 2.903493910635414E-002  2.975210210228047E-002  3.048697902420778E-002  3.124000740610469E-002 
 3.201163558903522E-002  3.280232298808378E-002  3.361254036589011E-002  3.444277011292831E-002 
 3.529350653471797E-002  3.616525614612335E-002  3.705853797293356E-002  3.797388386086514E-002 
 3.891183879222876E-002  3.987296121039637E-002  4.085782335229360E-002  4.186701158909545E-002 
 4.290112677534467E-002  4.396078460669560E-002  4.504661598648104E-002  4.615926740134844E-002 
 4.729940130616082E-002  4.846769651842340E-002  4.966484862242866E-002  5.089157038340295E-002 
 5.214859217187174E-002  5.343666239851935E-002  5.475654795976250E-002  5.610903469436746E-002 
 5.749492785131779E-002  5.891505256924533E-002  6.037025436770724E-002  6.186139965058990E-002 
 6.338937622195902E-002  6.495509381464179E-002  6.655948463186281E-002  6.820350390226843E-002 
 6.988813044865623E-002  7.161436727073719E-002  7.338324214232532E-002  7.519580822324035E-002 
 7.705314468635326E-002  7.895635736010599E-002  8.090657938690088E-002  8.290497189775757E-002 
 8.495272470363258E-002  8.705105700381138E-002  8.920121811180516E-002  9.140448819916901E-002 
 9.366217905768620E-002  9.597563488041341E-002  9.834623306195790E-002  1.007753850185895E-001 
 1.032645370285484E-001  1.058151710931535E-001  1.084288058191537E-001  1.111069973228879E-001 
 1.138513401567629E-001  1.166634682586337E-001  1.195450559246222E-001  1.224978188059599E-001 
 1.255235149304668E-001  1.286239457492513E-001  1.318009572092575E-001  1.350564408523244E-001 
 1.383923349413776E-001  1.418106256144311E-001  1.453133480671062E-001  1.489025877643642E-001 
 1.525804816821428E-001  1.563492195796916E-001  1.602110453033108E-001  1.641682581223042E-001 
 1.682232140979246E-001  1.723783274861434E-001  1.766360721750498E-001  1.809989831577746E-001 
 1.854696580417699E-001  1.900507585954026E-001  1.947450123327081E-001  1.995552141373269E-001 
 2.044842279265184E-001  2.095349883563032E-001  2.147105025687046E-001  2.200138519821516E-001 
 2.254481941261107E-001  2.310167645210248E-001  2.367228786046958E-001  2.425699337062309E-001 
 2.485614110687661E-001  2.547008779221736E-001  2.609919896068590E-001  2.674384917501320E-001 
 2.740442224963772E-001  2.808131147920310E-001  2.877491987273844E-001  2.948566039359710E-001 
 3.021395620531723E-001  3.096024092358968E-001  3.172495887440144E-001  3.250856535859877E-001 
 3.331152692295771E-001  3.413432163795485E-001  3.497743938241156E-001  3.584138213515796E-001 
 3.672666427389500E-001  3.763381288145939E-001  3.856336805963296E-001  3.951588325070634E-001 
 4.049192556699698E-001  4.149207612850214E-001  4.251693040887708E-001  4.356709858997511E-001 
 4.464320592514733E-001  4.574589311149949E-001  4.687581667135251E-001  4.803364934313595E-001 
 4.922008048191218E-001  5.043581646981421E-001  5.168158113661918E-001  5.295811619069430E-001 
 5.426618166060311E-001  5.560655634762084E-001  5.698003828940796E-001  5.838744523515647E-001 
 5.982961513246277E-001  6.130740662623466E-001  6.282169956990306E-001  6.437339554928029E-001 
 6.596341841934783E-001  6.759271485430536E-001  6.926225491120580E-001  7.097303260751272E-001 
 7.272606651291968E-001  7.452240035578739E-001  7.636310364457471E-001  7.824927230459766E-001 
 8.018202933052131E-001  8.216252545498510E-001  8.419193983372236E-001  8.627148074761581E-001 
 8.840238632208183E-001  9.058592526423744E-001  9.282339761826470E-001  9.511613553943360E-001 
 9.746550408725950E-001  9.987290203821451E-001  1.023397627185566E+000  1.048675548577061E+000 
 1.074577834626908E+000  1.101119907142203E+000  1.128317568848602E+000  1.156187012799172E+000 
 1.184744832015311E+000  1.214008029366102E+000  1.243994027691429E+000  1.274720680175421E+000 
 1.306206280975750E+000  1.338469576115837E+000  1.371529774645899E+000  1.405406560079659E+000 
 1.440120102113620E+000  1.475691068635828E+000  1.512140638031128E+000  1.549490511790513E+000 
 1.587762927431744E+000  1.626980671739287E+000  1.667167094331260E+000  1.708346121561249E+000 