<UPF version="2.0.1">
  <PP_INFO>
    Generated using FHI98PP, converted with fhi2upf.x v.5.0.1
    Author: Abinit web site
    Generation date: 10-Jul-2012, PG
    Pseudopotential type: SL
    Element: Pd
    Functional: SLA-PW

    Suggested minimum cutoff for wavefunctions:   0. Ry
    Suggested minimum cutoff for charge density:   0. Ry
    The Pseudo was generated with a Non-Relativistic Calculation
    L component and cutoff radius for Local Potential:  1   0.0000

    Valence configuration: 
    nl pn  l   occ       Rcut    Rcut US       E pseu
    5s  5  0  2.00      0.000      0.000     0.000000
    5p  5  1  0.00      0.000      0.000     0.000000
    4d  4  2  8.00      0.000      0.000     0.000000
    4f  4  3  0.00      0.000      0.000     0.000000

    Generation configuration: not available.
    Comment:
    palladium, fhi98PP : Trouiller-Martins-type, LDA Ceperley/Alder Perdew/Wang (199
  </PP_INFO>
  <!--                               -->
  <!-- END OF HUMAN READABLE SECTION -->
  <!--                               -->
  <PP_HEADER generated="Generated using FHI98PP, converted with fhi2upf.x v.5.0.1"
             author="Abinit web site"
             date="10-Jul-2012, PG"
             comment="palladium, fhi98PP : Trouiller-Martins-type, LDA Ceperley/Alder Perdew/Wang (199"
             element="Pd"
             pseudo_type="SL"
             relativistic="no"
             is_ultrasoft="F"
             is_paw="F"
             is_coulomb="F"
             has_so="F"
             has_wfc="F"
             has_gipaw="F"
             paw_as_gipaw="F"
             core_correction="F"
             functional="SLA-PW"
             z_valence="1.000000000000000E+001"
             total_psenergy="0.000000000000000E+000"
             wfc_cutoff="0.000000000000000E+000"
             rho_cutoff="0.000000000000000E+000"
             l_max="3"
             l_max_rho="0"
             l_local="1"
             mesh_size="545"
             number_of_wfc="4"
             number_of_proj="3"/>
  <PP_MESH dx="2.439988682353512E-002" mesh="545" xmin="-5.075173815233836E+000" rmax="7.902175705269801E+001"
zmesh="4.600000000000000E+001">
    <PP_R type="real" size="545" columns="4">
 1.358695652173900E-004  1.392255434782600E-004  1.426644144021700E-004  1.461882254379100E-004 
 1.497990746062200E-004  1.534991117490000E-004  1.572905398092000E-004  1.611756161424900E-004 
 1.651566538612000E-004  1.692360232115800E-004  1.734161529849000E-004  1.776995319636300E-004 
 1.820887104031300E-004  1.865863015500900E-004  1.911949831983800E-004  1.959174992833800E-004 
 2.007566615156700E-004  2.057153510551100E-004  2.107965202261700E-004  2.160031942757600E-004 
 2.213384731743700E-004  2.268055334617800E-004  2.324076301382800E-004  2.381480986027000E-004 
 2.440303566381900E-004  2.500579064471500E-004  2.562343367363900E-004  2.625633248537800E-004 
 2.690486389776700E-004  2.756941403604200E-004  2.825037856273200E-004  2.894816291323200E-004 
 2.966318253718800E-004  3.039586314585700E-004  3.114664096556000E-004  3.191596299740900E-004 
 3.270428728344500E-004  3.351208317934600E-004  3.433983163387600E-004  3.518802547523300E-004 
 3.605716970447100E-004  3.694778179617100E-004  3.786039200653700E-004  3.879554368909800E-004 
 3.975379361821900E-004  4.073571232058900E-004  4.174188441490700E-004  4.277290895995600E-004 
 4.382939981126700E-004  4.491198598660500E-004  4.602131204047400E-004  4.715803844787400E-004 
 4.832284199753600E-004  4.951641619487500E-004  5.073947167488900E-004  5.199273662525900E-004 
 5.327695721990200E-004  5.459289806323400E-004  5.594134264539600E-004  5.732309380873700E-004 
 5.873897422581300E-004  6.018982688919099E-004  6.167651561335400E-004  6.319992554900300E-004 
 6.476096371006400E-004  6.636055951370200E-004  6.799966533369099E-004  6.967925706743300E-004 
 7.140033471699800E-004  7.316392298450800E-004  7.497107188222600E-004  7.682285735771699E-004 
 7.872038193445200E-004  8.066477536823301E-004  8.265719531982900E-004  8.469882804422800E-004 
 8.679088909692100E-004  8.893462405761500E-004  9.113130927183800E-004  9.338225261085200E-004 
 9.568879425034000E-004  9.805230746832399E-004  1.004741994627900E-003  1.029559121895200E-003 
 1.054989232206000E-003  1.081047466241500E-003  1.107749338657700E-003  1.135110747322500E-003 
 1.163147982781400E-003  1.191877737956100E-003  1.221317118083600E-003  1.251483650900300E-003 
 1.282395297077500E-003  1.314070460915300E-003  1.346528001299900E-003  1.379787242932000E-003 
 1.413867987832500E-003  1.448790527131900E-003  1.484575653152100E-003  1.521244671784900E-003 
 1.558819415178000E-003  1.597322254732900E-003  1.636776114424800E-003  1.677204484451100E-003 
 1.718631435217100E-003  1.761081631666900E-003  1.804580347969100E-003  1.849153482563900E-003 
 1.894827573583300E-003  1.941629814650800E-003  1.989588071072700E-003  2.038730896428100E-003 
 2.089087549569900E-003  2.140688012044300E-003  2.193563005941800E-003  2.247744012188600E-003 
 2.303263289289600E-003  2.360153892535100E-003  2.418449693680700E-003  2.478185401114600E-003 
 2.539396580522100E-003  2.602119676061000E-003  2.666392032059700E-003  2.732251915251600E-003 
 2.799738537558300E-003  2.868892079436000E-003  2.939753713798100E-003  3.012365630528900E-003 
 3.086771061603000E-003  3.163014306824600E-003  3.241140760203100E-003  3.321196936980100E-003 
 3.403230501323500E-003  3.487290294706200E-003  3.573426364985500E-003  3.661689996200600E-003 
 3.752133739106800E-003  3.844811442462700E-003  3.939778285091500E-003  4.037090808733300E-003 
 4.136806951709000E-003  4.238986083416200E-003  4.343689039676600E-003  4.450978158956600E-003 
 4.560917319482800E-003  4.673571977274100E-003  4.789009205112700E-003  4.907297732479000E-003 
 5.028507986471300E-003  5.152712133737100E-003  5.279984123440400E-003  5.410399731289400E-003 
 5.544036604652200E-003  5.680974308787100E-003  5.821294374214200E-003  5.965080345257300E-003 
 6.112417829785100E-003  6.263394550180800E-003  6.418100395570300E-003  6.576627475340900E-003 
 6.739070173981800E-003  6.905525207279100E-003  7.076091679898900E-003  7.250871144392400E-003 
 7.429967661658900E-003  7.613487862901900E-003  7.801541013115600E-003  7.994239076139499E-003 
 8.191696781320200E-003  8.394031691818800E-003  8.601364274606700E-003  8.813817972189501E-003 
 9.031519276102601E-003  9.254597802222301E-003  9.483186367937199E-003  9.717421071225200E-003 
 9.957441371684500E-003  1.020339017356500E-002  1.045541391085200E-002  1.071366263445000E-002 
 1.097829010152100E-002  1.124945386702900E-002  1.152731537754400E-002  1.181204006737000E-002 
 1.210379745703400E-002  1.240276125422200E-002  1.270910945720200E-002  1.302302446079500E-002 
 1.334469316497600E-002  1.367430708615100E-002  1.401206247117900E-002  1.435816041421700E-002 
 1.471280697644800E-002  1.507621330876700E-002  1.544859577749300E-002  1.583017609319700E-002 
 1.622118144269900E-002  1.662184462433400E-002  1.703240418655500E-002  1.745310456996300E-002 
 1.788419625284100E-002  1.832593590028600E-002  1.877858651702300E-002  1.924241760399400E-002 
 1.971770531881200E-002  2.020473264018700E-002  2.070378953640000E-002  2.121517313794900E-002 
 2.173918791445600E-002  2.227614585594300E-002  2.282636665858500E-002  2.339017791505200E-002 
 2.396791530955400E-002  2.455992281770000E-002  2.516655291129700E-002  2.578816676820600E-002 
 2.642513448738000E-002  2.707783530921900E-002  2.774665784135600E-002  2.843200029003800E-002 
 2.913427069720200E-002  2.985388718342300E-002  3.059127819685300E-002  3.134688276831600E-002 
 3.212115077269300E-002  3.291454319677900E-002  3.372753241373900E-002  3.456060246435800E-002 
 3.541424934522800E-002  3.628898130405500E-002  3.718531914226500E-002  3.810379652507900E-002 
 3.904496029924900E-002  4.000937081864000E-002  4.099760227786000E-002  4.201024305412400E-002 
 4.304789605756000E-002  4.411117909018200E-002  4.520072521371000E-002  4.631718312648800E-002 
 4.746121754971300E-002  4.863350962319000E-002  4.983475731088300E-002  5.106567581646200E-002 
 5.232699800912900E-002  5.361947485995400E-002  5.494387588899500E-002  5.630098962345300E-002 
 5.769162406715300E-002  5.911660718161100E-002  6.057678737899700E-002  6.207303402725800E-002 
 6.360623796773100E-002  6.517731204553399E-002  6.678719165305901E-002  6.843683528689000E-002 
 7.012722511847599E-002  7.185936757890200E-002  7.363429395810100E-002  7.545306101886599E-002 
 7.731675162603199E-002  7.922647539119500E-002  8.118336933335800E-002  8.318859855589200E-002 
 8.524335694022200E-002  8.734886785664600E-002  8.950638489270500E-002  9.171719259955501E-002 
 9.398260725676399E-002  9.630397765600600E-002  9.868268590410900E-002  1.011201482459400E-001 
 1.036178159076200E-001  1.061771759605300E-001  1.087997522067600E-001  1.114871060862700E-001 
 1.142408376066000E-001  1.170625862954800E-001  1.199540321769800E-001  1.229168967717500E-001 
 1.259529441220100E-001  1.290639818418200E-001  1.322518621933200E-001  1.355184831894900E-001 
 1.388657897242700E-001  1.422957747304600E-001  1.458104803663000E-001  1.494119992313500E-001 
 1.531024756123700E-001  1.568841067599900E-001  1.607591441969600E-001  1.647298950586300E-001 
 1.687987234665800E-001  1.729680519362000E-001  1.772403628190300E-001  1.816181997806600E-001 
 1.861041693152400E-001  1.907009422973200E-001  1.954112555720700E-001  2.002379135847000E-001 
 2.051837900502400E-001  2.102518296644800E-001  2.154450498571900E-001  2.207665425886700E-001 
 2.262194761906100E-001  2.318070972525200E-001  2.375327325546500E-001  2.433997910487500E-001 
 2.494117658876600E-001  2.555722365050800E-001  2.618848707467600E-001  2.683534270542000E-001 
 2.749817567024400E-001  2.817738060929900E-001  2.887336191034900E-001  2.958653394953400E-001 
 3.031732133808800E-001  3.106615917513900E-001  3.183349330676500E-001  3.261978059144200E-001 
 3.342548917205000E-001  3.425109875460000E-001  3.509710089383900E-001  3.596399928591600E-001 
 3.685231006827800E-001  3.776256212696500E-001  3.869529741150100E-001  3.965107125756500E-001 
 4.063045271762700E-001  4.163402489975200E-001  4.266238531477600E-001  4.371614623205100E-001 
 4.479593504398300E-001  4.590239463956900E-001  4.703618378716600E-001  4.819797752671000E-001 
 4.938846757161900E-001  5.060836272063800E-001  5.185838927983800E-001  5.313929149505000E-001 
 5.445183199497799E-001  5.579679224525400E-001  5.717497301371099E-001  5.858719484715000E-001 
 6.003429855987500E-001  6.151714573430400E-001  6.303661923394100E-001  6.459362372901900E-001 
 6.618908623512600E-001  6.782395666513400E-001  6.949920839476200E-001  7.121583884211300E-001 
 7.297487006151300E-001  7.477734935203300E-001  7.662434988102800E-001  7.851697132308900E-001 
 8.045634051476900E-001  8.244361212548400E-001  8.447996934498400E-001  8.656662458780500E-001 
 8.870482021512400E-001  9.089582927443700E-001  9.314095625751601E-001  9.544153787707600E-001 
 9.779894386264000E-001  1.002145777760500E+000  1.026898778471200E+000  1.052263178299400E+000 
 1.078254078803400E+000  1.104886954549800E+000  1.132177662327200E+000  1.160142450586700E+000 
 1.188797969116200E+000  1.218161278953400E+000  1.248249862543500E+000  1.279081634148300E+000 
 1.310674950511800E+000  1.343048621789400E+000  1.376221922747600E+000  1.410214604239500E+000 
 1.445046904964200E+000  1.480739563516800E+000  1.517313830735700E+000  1.554791482354900E+000 
 1.593194831969000E+000  1.632546744318700E+000  1.672870648903300E+000  1.714190553931300E+000 
 1.756531060613400E+000  1.799917377810500E+000  1.844375337042400E+000  1.889931407867400E+000 
 1.936612713641700E+000  1.984447047668600E+000  2.033462889746100E+000  2.083689423122800E+000 
 2.135156551873900E+000  2.187894918705200E+000  2.241935923197200E+000  2.297311740500200E+000 
 2.354055340490600E+000  2.412200507400700E+000  2.471781859933500E+000  2.532834871873800E+000 
 2.595395893209100E+000  2.659502171771400E+000  2.725191875414100E+000  2.792504114736800E+000 
 2.861478966370800E+000  2.932157496840200E+000  3.004581787012200E+000  3.078794957151400E+000 
 3.154841192593000E+000  3.232765770050000E+000  3.312615084570300E+000  3.394436677159200E+000 
 3.478279263085000E+000  3.564192760883200E+000  3.652228322077000E+000  3.742438361632300E+000 
 3.834876589164600E+000  3.929598040917000E+000  4.026659112527700E+000  4.126117592607100E+000 
 4.228032697144500E+000  4.332465104763900E+000  4.439476992851600E+000  4.549132074575000E+000 
 4.661495636817100E+000  4.776634579046400E+000  4.894617453148900E+000  5.015514504241700E+000 
 5.139397712496400E+000  5.266340835995100E+000  5.396419454644200E+000  5.529711015173900E+000 
 5.666294877248700E+000  5.806252360716700E+000  5.949666794026400E+000  6.096623563838900E+000 
 6.247210165865700E+000  6.401516256962600E+000  6.559633708509500E+000  6.721656661109700E+000 
 6.887681580639100E+000  7.057807315680900E+000  7.232135156378200E+000  7.410768894740800E+000 
 7.593814886440900E+000  7.781382114136000E+000  7.973582252355100E+000  8.170529733988300E+000 
 8.372341818417800E+000  8.579138661332699E+000  8.791043386267701E+000  9.008182157908500E+000 
 9.230684257208800E+000  9.458682158361899E+000  9.692311607673400E+000  9.931711704382900E+000 
 1.017702498348100E+001  1.042839750057300E+001  1.068597891883700E+001  1.094992259813300E+001 
 1.122038568630600E+001  1.149752921275800E+001  1.178151818431300E+001  1.207252168346600E+001 
 1.237071296904800E+001  1.267626957938300E+001  1.298937343799400E+001  1.331021096191200E+001 
 1.363897317267100E+001  1.397585581003600E+001  1.432105944854400E+001  1.467478961692300E+001 
 1.503725692046100E+001  1.540867716639700E+001  1.578927149240700E+001  1.617926649826900E+001 
 1.657889438077600E+001  1.698839307198200E+001  1.740800638086000E+001  1.783798413846700E+001 
 1.827858234668700E+001  1.873006333065000E+001  1.919269589491700E+001  1.966675548352200E+001 
 2.015252434396500E+001  2.065029169526100E+001  2.116035390013300E+001  2.168301464146700E+001 
 2.221858510311100E+001  2.276738415515800E+001  2.332973854379000E+001  2.390598308582200E+001 
 2.449646086804200E+001  2.510152345148200E+001  2.572153108073400E+001  2.635685289842800E+001 
 2.700786716501900E+001  2.767496148399500E+001  2.835853303265000E+001  2.905898879855600E+001 
 2.977674582188100E+001  3.051223144368100E+001  3.126588356034000E+001  3.203815088428000E+001 
 3.282949321112200E+001  3.364038169343700E+001  3.447129912126500E+001  3.532274020956000E+001 
 3.619521189273600E+001  3.708923362648700E+001  3.800533769706100E+001  3.894406953817800E+001 
 3.990598805577100E+001  4.089166596074900E+001  4.190169010997900E+001  4.293666185569600E+001 
 4.399719740353100E+001  4.508392817939900E+001  4.619750120543000E+001  4.733857948520400E+001 
 4.850784239848900E+001  4.970598610573100E+001  5.093372396254300E+001  5.219178694441800E+001 
 5.348092408194500E+001  5.480190290676900E+001  5.615550990856600E+001  5.754255100330700E+001 
 5.896385201308900E+001  6.042025915781200E+001  6.191263955901000E+001  6.344188175611800E+001 
 6.500889623549401E+001  6.661461597251100E+001  6.825999698703200E+001  6.994601891261100E+001 
 7.167368557975300E+001  7.344402561357300E+001  7.525809304622800E+001  7.711696794447001E+001 
 7.902175705269801E+001
    </PP_R>
    <PP_RAB type="real" size="545" columns="4">
 3.315202014067240E-006  3.397087503814712E-006  3.480995565158862E-006  3.566976155618442E-006 
 3.655080466662062E-006  3.745360954188770E-006  3.837871369757225E-006  3.932666792590297E-006 
 4.029803662367045E-006  4.129339812827715E-006  4.231334506204412E-006  4.335848468507734E-006 
 4.442943925679834E-006  4.552684640644192E-006  4.665135951268171E-006  4.780364809264495E-006 
 4.898439820053097E-006  5.019431283608480E-006  5.143411236313580E-006  5.270453493850613E-006 
 5.400633695148693E-006  5.534029347418940E-006  5.670719872300042E-006  5.810786653145963E-006 
 5.954313083478748E-006  6.101384616640594E-006  6.252088816671504E-006  6.406515410443318E-006 
 6.564756341081309E-006  6.726905822706055E-006  6.893060396526836E-006  7.063318988321175E-006 
 7.237782967332505E-006  7.416556206625730E-006  7.599745144929467E-006  7.787458850009143E-006 
 7.979809083604368E-006  8.176910367969375E-006  8.378880054058255E-006  8.585838391393560E-006 
 8.797908599660917E-006  9.015216942072436E-006  9.237892800541767E-006  9.466068752715034E-006 
 9.699880650907163E-006  9.939467702984568E-006  1.018497255524815E-005  1.043654137736298E-005 
 1.069432394938386E-005  1.095847375093357E-005  1.122914805258160E-005  1.150650800948043E-005 
 1.179071875731448E-005  1.208194951062012E-005  1.238037366353258E-005  1.268616889302189E-005 
 1.299951726467931E-005  1.332060534111699E-005  1.364962429304261E-005  1.398677001308070E-005 
 1.433224323240384E-005  1.468624964024431E-005  1.504900000635835E-005  1.542071030651519E-005 
 1.580160185108627E-005  1.619190141680796E-005  1.659184138180325E-005  1.700165986393375E-005 
 1.742160086257277E-005  1.785191440387835E-005  1.829285668965431E-005  1.874469024988877E-005 
 1.920768409906087E-005  1.968211389630769E-005  2.016826210954664E-005  2.066641818365226E-005 
 2.117687871278861E-005  2.169994761699450E-005  2.223593632313424E-005  2.278516395031556E-005 
 2.334795749988834E-005  2.392465205013573E-005  2.451559095577369E-005  2.512112605238108E-005 
 2.574161786587461E-005  2.637743582716200E-005  2.702895849209376E-005  2.769657376684737E-005 
 2.838067913888934E-005  2.908168191361989E-005  2.979999945688592E-005  3.053605944347186E-005 
 3.129030011172470E-005  3.206317052448395E-005  3.285513083643851E-005  3.366665256809836E-005 
 3.449821888653233E-005  3.535032489302815E-005  3.622347791788697E-005  3.711819782245739E-005 
 3.803501730867240E-005  3.897448223619670E-005  3.993715194743069E-005  4.092359960053241E-005 
 4.193441251066697E-005  4.297019249967893E-005  4.403155625442167E-005  4.511913569390498E-005 
 4.623357834554619E-005  4.737554773068099E-005  4.854572375962943E-005  4.974480313648994E-005 
 5.097349977396187E-005  5.223254521837931E-005  5.352268908527341E-005  5.484469950568058E-005 
 5.619936358346947E-005  5.758748786398231E-005  5.900989881422227E-005  6.046744331493322E-005 
 6.196098916481134E-005  6.349142559718227E-005  6.505966380943251E-005  6.666663750552611E-005 
 6.831330345191225E-005  7.000064204717472E-005  7.172965790574070E-005  7.350138045601217E-005 
 7.531686455327655E-005  7.717719110774264E-005  7.908346772810222E-005  8.103682938098594E-005 
 8.303843906669609E-005  8.508948851164372E-005  8.719119887788271E-005  8.934482149016539E-005 
 9.155163858097357E-005  9.381296405392269E-005  9.613014426605387E-005  9.850455882942640E-005 
 1.009376214325129E-004  1.034307806818957E-004  1.059855209647390E-004  1.086033633325678E-004 
 1.112858664068815E-004  1.140346273071333E-004  1.168512826016178E-004  1.197375092818781E-004 
 1.226950257611422E-004  1.257255928974414E-004  1.288310150420080E-004  1.320131411135462E-004 
 1.352738656990496E-004  1.386151301818159E-004  1.420389238973082E-004  1.455472853175719E-004 
 1.491423032649146E-004  1.528261181555582E-004  1.566009232740013E-004  1.604689660788695E-004 
 1.644325495410170E-004  1.684940335146790E-004  1.726558361424917E-004  1.769204352952112E-004 
 1.812903700470031E-004  1.857682421871646E-004  1.903567177691882E-004  1.950585286980858E-004 
 1.998764743569298E-004  2.048134232735457E-004  2.098723148284018E-004  2.150561610046636E-004 
 2.203680481814793E-004  2.258111389715610E-004  2.313886741041587E-004  2.371039743545303E-004 
 2.429604425210881E-004  2.489615654513564E-004  2.551109161180035E-004  2.614121557461171E-004 
 2.678690359930483E-004  2.744854011820871E-004  2.812651905912696E-004  2.882124407988902E-004 
 2.953312880866218E-004  3.026259709023433E-004  3.101008323836487E-004  3.177603229435275E-004 
 3.256090029202171E-004  3.336515452923487E-004  3.418927384610715E-004  3.503374891010570E-004 
 3.589908250818492E-004  3.678578984613888E-004  3.769439885533717E-004  3.862545050706382E-004 
 3.957949913458838E-004  4.055711276321353E-004  4.155887344846478E-004  4.258537762264208E-004 
 4.363723644992113E-004  4.471507619023376E-004  4.581953857213238E-004  4.695128117486534E-004 
 4.811097781988293E-004  4.929931897203488E-004  5.051701215064507E-004  5.176478235076581E-004 
 5.304337247482889E-004  5.435354377495701E-004  5.569607630619896E-004  5.707176939096195E-004 
 5.848144209491923E-004  5.992593371466377E-004  6.140610427741552E-004  6.292283505306759E-004 
 6.447702907887668E-004  6.606961169712667E-004  6.770153110604397E-004  6.937375892436449E-004 
 7.108729076979645E-004  7.284314685181069E-004  7.464237257904907E-004  7.648603918175337E-004 
 7.837524434954169E-004  8.031111288497655E-004  8.229479737323439E-004  8.432747886835242E-004 
 8.641036759640160E-004  8.854470367603240E-004  9.073175785683001E-004  9.297283227589385E-004 
 9.526926123310975E-004  9.762241198556647E-004  1.000336855616090E-003  1.025045175949828E-003 
 1.050363791795768E-003  1.076307777453130E-003  1.102892579556234E-003  1.130134026271258E-003 
 1.158048336720176E-003  1.186652130637142E-003  1.215962438263885E-003  1.245996710489007E-003 
 1.276772829238095E-003  1.308309118120264E-003  1.340624353337838E-003  1.373737774865278E-003 
 1.407669097904468E-003  1.442438524622692E-003  1.478066756180878E-003  1.514575005058540E-003 
 1.551985007683479E-003  1.590319037373262E-003  1.629599917596389E-003  1.669851035561031E-003 
 1.711096356139384E-003  1.753360436136018E-003  1.796668438908580E-003  1.841046149349620E-003 
 1.886519989238556E-003  1.933117032972748E-003  1.980865023687187E-003  2.029792389772262E-003 
 2.079928261799624E-003  2.131302489866087E-003  2.183945661365776E-003  2.237889119201515E-003 
 2.293164980445792E-003  2.349806155462801E-003  2.407846367502724E-003  2.467320172780029E-003 
 2.528262981047825E-003  2.590711076679506E-003  2.654701640273610E-003  2.720272770788441E-003 
 2.787463508226895E-003  2.856313856880025E-003  2.926864809145002E-003  2.999158369930849E-003 
 3.073237581668087E-003  3.149146549935200E-003  3.226930469718771E-003  3.306635652320703E-003 
 3.388309552933014E-003  3.472000798890473E-003  3.557759218623010E-003  3.645635871323057E-003 
 3.735683077344874E-003  3.827954449355157E-003  3.922504924254186E-003  4.019390795883390E-003 
 4.118669748541754E-003  4.220400891330625E-003  4.324644793346634E-003  4.431463519742295E-003 
 4.540920668679873E-003  4.653081409196109E-003  4.768012520003405E-003  4.885782429247486E-003 
 5.006461255249848E-003  5.130120848254496E-003  5.256834833206317E-003  5.386678653586695E-003 
 5.519729616330282E-003  5.656066937853687E-003  5.795771791218496E-003  5.938927354461597E-003 
 6.085618860116942E-003  6.235933645961702E-003  6.389961207017067E-003  6.547793248830269E-003 
 6.709523742076407E-003  6.875248978505688E-003  7.045067628274854E-003  7.219080798693092E-003 
 7.397392094420936E-003  7.580107679153189E-003  7.767336338828287E-003  7.959189546397323E-003 
 8.155781528193186E-003  8.357229331939648E-003  8.563652896438649E-003  8.775175122980483E-003 
 8.991921948518070E-003  9.214022420646596E-003  9.441608774436559E-003  9.674816511165125E-003 
 9.913784478990939E-003  1.015865495562192E-002  1.040957373302581E-002  1.066669020423156E-002 
 1.093015745227616E-002  1.120013234134729E-002  1.147677561017848E-002  1.176025196775013E-002 
 1.205073019135338E-002  1.234838322707981E-002  1.265338829278874E-002  1.296592698362063E-002 
 1.328618538011612E-002  1.361435415900500E-002  1.395062870673223E-002  1.429520923578860E-002 
 1.464830090391268E-002  1.501011393623934E-002  1.538086375046438E-002  1.576077108510076E-002 
 1.615006213090281E-002  1.654896866553620E-002  1.695772819157475E-002  1.737658407790674E-002 
 1.780578570463099E-002  1.824558861153552E-002  1.869625465024040E-002  1.915805214010124E-002 
 1.963125602796167E-002  2.011614805185237E-002  2.061301690873326E-002  2.112215842637894E-002 
 2.164387573951056E-002  2.217847947027633E-002  2.272628791319226E-002  2.328762722464795E-002 
 2.386283161709681E-002  2.445224355803978E-002  2.505621397392374E-002  2.567510245907872E-002 
 2.630927748981808E-002  2.695911664381551E-002  2.762500682491824E-002  2.830734449349417E-002 
 2.900653590248368E-002  2.972299733927575E-002  3.045715537355467E-002  3.120944711128087E-002 
 3.198032045493042E-002  3.277023437016618E-002  3.357965915910933E-002  3.440907674034017E-002 
 3.525898093582620E-002  3.612987776494071E-002  3.702228574573560E-002  3.793673620365597E-002 
 3.887377358788465E-002  3.983395579550701E-002  4.081785450365428E-002  4.182605550989670E-002 
 4.285915908099107E-002  4.391778031029030E-002  4.500254948395400E-002  4.611411245620896E-002 
 4.725313103387671E-002  4.842028337041224E-002  4.961626436966352E-002  5.084178609959351E-002 
 5.209757821625266E-002  5.338438839819445E-002  5.470298279162941E-002  5.605414646658336E-002 
 5.743868388430907E-002  5.885741937625107E-002  6.031119763484454E-002  6.180088421642380E-002 
 6.332736605656988E-002  6.489155199816803E-002  6.649437333252146E-002  6.813678435383407E-002 
 6.981976292737378E-002  7.154431107168092E-002  7.331145555515259E-002  7.512224850736483E-002 
 7.697776804549576E-002  7.887911891621836E-002  8.082743315345055E-002  8.282387075234110E-002 
 8.486962035992314E-002  8.696589998281325E-002  8.911395771238838E-002  9.131507246788433E-002 
 9.357055475784064E-002  9.588174746036013E-002  9.825002662263224E-002  1.006768022802104E-001 
 1.031635192965318E-001  1.057116582231544E-001  1.083227361812671E-001  1.109983077649435E-001 
 1.137399659667400E-001  1.165493431261165E-001  1.194281119013329E-001  1.223779862652963E-001 
 1.254007225260474E-001  1.284981203724418E-001  1.316720239456416E-001  1.349243229370987E-001 
 1.382569537136451E-001  1.416719004703711E-001  1.451711964119892E-001  1.487569249633665E-001 
 1.524312210099611E-001  1.561962721689076E-001  1.600543200914778E-001  1.640076617977377E-001 
 1.680586510441415E-001  1.722096997249322E-001  1.764632793081375E-001  1.808219223070500E-001 
 1.852882237880342E-001  1.898648429155989E-001  1.945545045356127E-001  1.993600007976430E-001 
 2.042841928173446E-001  2.093300123799325E-001  2.145004636857188E-001  2.197986251387558E-001 
 2.252276511796821E-001  2.307907741638212E-001  2.364913062856667E-001  2.423326415509219E-001 
 2.483182577972258E-001  2.544517187648178E-001  2.607366762183050E-001  2.671768721209148E-001 
 2.737761408622799E-001  2.805384115415840E-001  2.874677103066582E-001  2.945681627512441E-001 
 3.018439963712093E-001  3.092995430815664E-001  3.169392417956869E-001  3.247676410680294E-001 
 3.327894018024041E-001  3.410093000269241E-001  3.494322297375919E-001  3.580632058121095E-001 
 3.669073669956687E-001  3.759699789604766E-001  3.852564374408003E-001  3.947722714455770E-001 
 4.045231465502768E-001  4.145148682700889E-001  4.247533855163613E-001  4.352447941386094E-001 
 4.459953405538298E-001  4.570114254655053E-001  4.682996076745020E-001  4.798666079840755E-001 
 4.917193132012823E-001  5.038647802373556E-001  5.163102403091951E-001  5.290631032448497E-001 
 5.421309618949918E-001  5.555215966538020E-001  5.692429800911410E-001  5.833032816994017E-001 
 5.977108727573817E-001  6.124743313144735E-001  6.276024472979506E-001  6.431042277462068E-001 
 6.589889021715339E-001  6.752659280551715E-001  6.919449964781422E-001  7.090360378911412E-001 
 7.265492280270687E-001  7.444949939593261E-001  7.628840203101234E-001  7.817272556117737E-001 
 8.010359188253914E-001  8.208215060203855E-001  8.410957972190917E-001  8.618708634103973E-001 
 8.831590737366308E-001  9.049731028579359E-001  9.273259384985214E-001  9.502308891794249E-001 
 9.737015921421567E-001  9.977520214680792E-001  1.022396496398329E+000  1.047649689859380E+000 
 1.073526637198890E+000  1.100042745137721E+000  1.127213800942619E+000  1.155055981825899E+000 
 1.183585864577010E+000  1.212820435432046E+000  1.242777100187228E+000  1.273473694561857E+000 
 1.304928494817532E+000  1.337160228639524E+000  1.370188086286916E+000  1.404031732018188E+000 
 1.438711315799045E+000  1.474247485299274E+000  1.510661398186167E+000  1.547974734721377E+000 
 1.586209710668992E+000  1.625389090522523E+000  1.665536201058429E+000  1.706674945224555E+000 
 1.748829816371614E+000  1.792025912835996E+000  1.836288952883039E+000  1.881645290019254E+000 
 1.928121928682720E+000
    </PP_RAB>
  </PP_MESH>
  <PP_LOCAL type="real" size="545" columns="4">
-1.284443508501660E+001 -1.284443510981680E+001 -1.284443513401320E+001 -1.284443515761980E+001 
-1.284443518065080E+001 -1.284443520311960E+001 -1.284443522503940E+001 -1.284443524642300E+001 
-1.284443526728320E+001 -1.284443528763200E+001 -1.284443530748120E+001 -1.284443532684260E+001 
-1.284443534572720E+001 -1.284443536414640E+001 -1.284443538211060E+001 -1.284443539963040E+001 
-1.284443541671600E+001 -1.284443543337680E+001 -1.284443544962300E+001 -1.284443546546360E+001 
-1.284443548090760E+001 -1.284443549596400E+001 -1.284443551064140E+001 -1.284443552494820E+001 
-1.284443553889220E+001 -1.284443555248140E+001 -1.284443556572340E+001 -1.284443557862560E+001 
-1.284443559119520E+001 -1.284443560343920E+001 -1.284443561536420E+001 -1.284443562697660E+001 
-1.284443563828280E+001 -1.284443564928900E+001 -1.284443566000080E+001 -1.284443567042380E+001 
-1.284443568056380E+001 -1.284443569042560E+001 -1.284443570001460E+001 -1.284443570933540E+001 
-1.284443571839260E+001 -1.284443572719060E+001 -1.284443573573360E+001 -1.284443574402580E+001 
-1.284443575207060E+001 -1.284443575987200E+001 -1.284443576743320E+001 -1.284443577475720E+001 