<UPF version="2.0.1">
  <PP_INFO>
    Generated using FHI98PP, converted with fhi2upf.x v.5.0.1
    Author: Abinit web site
    Generation date: 10-Jul-2012, PG
    Pseudopotential type: SL
    Element: Pm
    Functional: SLA-PW

    Suggested minimum cutoff for wavefunctions:   0. Ry
    Suggested minimum cutoff for charge density:   0. Ry
    The Pseudo was generated with a Non-Relativistic Calculation
    L component and cutoff radius for Local Potential:  0   0.0000

    Valence configuration: 
    nl pn  l   occ       Rcut    Rcut US       E pseu
    6s  6  0  2.00      0.000      0.000     0.000000
    6p  6  1  0.00      0.000      0.000     0.000000
    5d  5  2  0.00      0.000      0.000     0.000000
    4f  4  3  5.00      0.000      0.000     0.000000

    Generation configuration: not available.
    Comment:
    promethium, fhi98PP : Trouiller-Martins-type, LDA Ceperley/Alder Perdew/Wang (19
  </PP_INFO>
  <!--                               -->
  <!-- END OF HUMAN READABLE SECTION -->
  <!--                               -->
  <PP_HEADER generated="Generated using FHI98PP, converted with fhi2upf.x v.5.0.1"
             author="Abinit web site"
             date="10-Jul-2012, PG"
             comment="promethium, fhi98PP : Trouiller-Martins-type, LDA Ceperley/Alder Perdew/Wang (19"
             element="Pm"
             pseudo_type="SL"
             relativistic="no"
             is_ultrasoft="F"
             is_paw="F"
             is_coulomb="F"
             has_so="F"
             has_wfc="F"
             has_gipaw="F"
             paw_as_gipaw="F"
             core_correction="F"
             functional="SLA-PW"
             z_valence="7.000000000000000E+000"
             total_psenergy="0.000000000000000E+000"
             wfc_cutoff="0.000000000000000E+000"
             rho_cutoff="0.000000000000000E+000"
             l_max="3"
             l_max_rho="0"
             l_local="0"
             mesh_size="557"
             number_of_wfc="4"
             number_of_proj="3"/>
  <PP_MESH dx="2.439988682353512E-002" mesh="557" xmin="-5.075173815233852E+000" rmax="7.986114143462400E+001"
zmesh="6.100000000000000E+001">
    <PP_R type="real" size="557" columns="4">
 1.024590163934400E-004  1.049897540983600E-004  1.075830010245900E-004  1.102403011499000E-004 
 1.129632365883000E-004  1.157534285320300E-004  1.186125382167700E-004  1.215422679107300E-004 
 1.245443619281200E-004  1.276206076677500E-004  1.307728366771400E-004  1.340029257430600E-004 
 1.373127980089200E-004  1.407044241197400E-004  1.441798233955000E-004  1.477410650333600E-004 
 1.513902693396900E-004  1.551296089923800E-004  1.589613103344900E-004  1.628876546997500E-004 
 1.669109797708400E-004  1.710336809711800E-004  1.752582128911600E-004  1.795870907495800E-004 
 1.840228918910900E-004  1.885682573208000E-004  1.932258932766200E-004  1.979985728405600E-004 
 2.028891375897200E-004  2.079004992881800E-004  2.130356416206000E-004  2.182976219686300E-004 
 2.236895732312600E-004  2.292147056900700E-004  2.348763089206100E-004  2.406777537509500E-004 
 2.466224942686000E-004  2.527140698770400E-004  2.589561074030000E-004  2.653523232558500E-004 
 2.719065256402700E-004  2.786226168235900E-004  2.855045954591300E-004  2.925565589669700E-004 
 2.997827059734500E-004  3.071873388110000E-004  3.147748660796300E-004  3.225498052718000E-004 
 3.305167854620100E-004  3.386805500629200E-004  3.470459596494800E-004  3.556179948528200E-004 
 3.644017593256800E-004  3.734024827810300E-004  3.826255241057200E-004  3.920763745511300E-004 
 4.017606610025400E-004  4.116841493293100E-004  4.218527478177400E-004  4.322725106888400E-004 
 4.429496417028500E-004  4.538904978529100E-004  4.651015931498800E-004  4.765896025006800E-004 
 4.883613656824500E-004  5.004238914148000E-004  5.127843615327500E-004  5.254501352626100E-004 
 5.384287536036000E-004  5.517279438176000E-004  5.653556240299000E-004  5.793199079434400E-004 
 5.936291096696400E-004  6.082917486784800E-004  6.233165548708400E-004  6.387124737761500E-004 
 6.544886718784200E-004  6.706545420738200E-004  6.872197092630400E-004  7.041940360818400E-004 
 7.215876287730600E-004  7.394108432037500E-004  7.576742910308800E-004  7.763888460193500E-004 
 7.955656505160300E-004  8.152161220837700E-004  8.353519602992400E-004  8.559851537186300E-004 
 8.771279870154800E-004  8.987930482947600E-004  9.209932365876400E-004  9.437417695313600E-004 
 9.670521912387799E-004  9.909383803623801E-004  1.015414558357300E-003  1.040495297948800E-003 
 1.066195531808100E-003  1.092530561443800E-003  1.119516066311400E-003  1.147168113149300E-003 
 1.175503165544100E-003  1.204538093733000E-003  1.234290184648200E-003  1.264777152209000E-003 
 1.296017147868600E-003  1.328028771421000E-003  1.360831082075100E-003  1.394443609802300E-003 
 1.428886366964400E-003  1.464179860228500E-003  1.500345102776100E-003  1.537403626814700E-003 
 1.575377496397000E-003  1.614289320558000E-003  1.654162266775800E-003  1.695020074765100E-003 
 1.736887070611800E-003  1.779788181256000E-003  1.823748949333000E-003  1.868795548381500E-003 
 1.914954798426500E-003  1.962254181947700E-003  2.010721860241800E-003  2.060386690189700E-003 
 2.111278241437400E-003  2.163426814000900E-003  2.216863456306800E-003  2.271619983677500E-003 
 2.327728997274400E-003  2.385223903507000E-003  2.444138933923700E-003  2.504509165591600E-003 
 2.566370541981700E-003  2.629759894368600E-003  2.694714963759500E-003  2.761274423364400E-003 
 2.829477901621500E-003  2.899366005791600E-003  2.970980346134600E-003  3.044363560684100E-003 
 3.119559340633000E-003  3.196612456346700E-003  3.275568784018400E-003  3.356475332983700E-003 
 3.439380273708400E-003  3.524332966469000E-003  3.611383990740800E-003  3.700585175312100E-003 
 3.791989629142300E-003  3.885651772982100E-003  3.981627371774700E-003  4.079973567857600E-003 
 4.180748914983600E-003  4.284013413183700E-003  4.389828544489400E-003  4.498257309538300E-003 
 4.609364265083900E-003  4.723215562431400E-003  4.839878986823500E-003  4.959423997798000E-003 
 5.081921770543600E-003  5.207445238276100E-003  5.336069135661500E-003  5.467870043312300E-003 
 5.602926433382100E-003  5.741318716286700E-003  5.883129288579000E-003  6.028442582006900E-003 
 6.177345113782400E-003  6.329925538092900E-003  6.486274698883700E-003  6.646485683946200E-003 
 6.810653880339600E-003  6.978877031184000E-003  7.151255293854300E-003  7.327891299612500E-003 
 7.508890214712900E-003  7.694359803016300E-003  7.884410490150800E-003  8.079155429257500E-003 
 8.278710568360201E-003  8.483194719398700E-003  8.692729628967799E-003  8.907440050803401E-003 
 9.127453820058201E-003  9.352901929413600E-003  9.583918607070200E-003  9.820641396664800E-003 
 1.006321123916200E-002  1.031177255677000E-002  1.056647333892200E-002  1.082746523039300E-002 
 1.109490362158400E-002  1.136894774103700E-002  1.164976075024100E-002  1.193750984077200E-002 
 1.223236633383900E-002  1.253450578228500E-002  1.284410807510700E-002  1.316135754456200E-002 
 1.348644307591300E-002  1.381955821988800E-002  1.416090130791900E-002  1.451067557022500E-002 
 1.486908925680900E-002  1.523635576145200E-002  1.561269374876000E-002  1.599832728435500E-002 
 1.639348596827800E-002  1.679840507169500E-002  1.721332567696600E-002  1.763849482118700E-002 
 1.807416564327000E-002  1.852059753465900E-002  1.897805629376500E-002  1.944681428422100E-002 
 1.992715059704100E-002  2.041935121678800E-002  2.092370919184300E-002  2.144052480888100E-002 
 2.197010577166000E-002  2.251276738422000E-002  2.306883273861100E-002  2.363863290725400E-002 
 2.422250714006400E-002  2.482080306642300E-002  2.543387690216400E-002  2.606209366164700E-002 
 2.670582737509000E-002  2.736546131125500E-002  2.804138820564300E-002  2.873401049432200E-002 
 2.944374055353200E-002  3.017100094520400E-002  3.091622466855100E-002  3.167985541786400E-002 
 3.246234784668500E-002  3.326416783849800E-002  3.408579278410900E-002  3.492771186587700E-002 
 3.579042634896400E-002  3.667444987978300E-002  3.758030879181400E-002  3.850854241897100E-002 
 3.945970341672000E-002  4.043435809111300E-002  4.143308673596400E-002  4.245648397834200E-002 
 4.350515913260700E-002  4.457973656318200E-002  4.568085605629300E-002  4.680917320088300E-002 
 4.796535977894500E-002  4.915010416548500E-002  5.036411173837300E-002  5.160810529831000E-002 
 5.288282549917900E-002  5.418903128900800E-002  5.552750036184700E-002  5.689902962078400E-002 
 5.830443565241800E-002  5.974455521303300E-002  6.122024572679400E-002  6.273238579624600E-002 
 6.428187572541399E-002  6.586963805583100E-002  6.749661811580999E-002  6.916378458327101E-002 
 7.087213006247800E-002  7.262267167502100E-002  7.441645166539400E-002  7.625453802152900E-002 
 7.813802511066099E-002  8.006803433089400E-002  8.204571477886700E-002  8.407224393390500E-002 
 8.614882835907300E-002  8.827670441954200E-002  9.045713901870400E-002  9.269143035246601E-002 
 9.498090868217200E-002  9.732693712662201E-002  9.973091247364900E-002  1.021942660117500E-001 
 1.047184643822400E-001  1.073050104524800E-001  1.099554442106600E-001  1.126713436826600E-001 
 1.154543258716200E-001  1.183060477206500E-001  1.212282070993500E-001  1.242225438147000E-001 
 1.272908406469300E-001  1.304349244109100E-001  1.336566670438600E-001  1.369579867198400E-001 
 1.403408489918200E-001  1.438072679619200E-001  1.473593074805800E-001  1.509990823753500E-001 
 1.547287597100200E-001  1.585505600748600E-001  1.624667589087000E-001  1.664796878537500E-001 
 1.705917361437400E-001  1.748053520264900E-001  1.791230442215400E-001  1.835473834138100E-001 
 1.880810037841300E-001  1.927266045776000E-001  1.974869517106700E-001  2.023648794179200E-001 
 2.073632919395500E-001  2.124851652504500E-001  2.177335488321400E-001  2.231115674882900E-001 
 2.286224232052500E-001  2.342693970584200E-001  2.400558511657700E-001  2.459852306895600E-001 
 2.520610658875900E-001  2.582869742150200E-001  2.646666624781300E-001  2.712039290413400E-001 
 2.779026660886600E-001  2.847668619410500E-001  2.918006034309900E-001  2.990080783357400E-001 
 3.063935778706300E-001  3.139614992440300E-001  3.217163482753600E-001  3.296627420777600E-001 
 3.378054118070800E-001  3.461492054787200E-001  3.546990908540400E-001  3.634601583981400E-001 
 3.724376243105700E-001  3.816368336310400E-001  3.910632634217300E-001  4.007225260282500E-001 
 4.106203724211400E-001  4.207626956199500E-001  4.311555342017600E-001  4.418050758965400E-001 
 4.527176612711900E-001  4.638997875045800E-001  4.753581122559500E-001  4.870994576286700E-001 
 4.991308142321000E-001  5.114593453436300E-001  5.240923911736201E-001  5.370374732356100E-001 
 5.503022988245300E-001  5.638947656054900E-001  5.778229663159500E-001  5.920951935839500E-001 
 6.067199448654800E-001  6.217059275036499E-001  6.370620639129900E-001  6.527974968916400E-001 
 6.689215950648700E-001  6.854439584629700E-001  7.023744242370000E-001  7.197230725156600E-001 
 7.375002324068000E-001  7.557164881472400E-001  7.743826854044800E-001  7.935099377339700E-001 
 8.131096331960000E-001  8.331934411359400E-001  8.537733191320001E-001  8.748615201145600E-001 
 8.964705996613900E-001  9.186134234730200E-001  9.413031750328100E-001  9.645533634561200E-001 
 9.883778315334800E-001  1.012790763972400E+000  1.037806695842500E+000  1.063440521229800E+000 
 1.089707502104200E+000  1.116623277406100E+000  1.144203872358100E+000  1.172465708005300E+000 
 1.201425610993000E+000  1.231100823584600E+000  1.261509013927100E+000  1.292668286571100E+000 
 1.324597193249400E+000  1.357314743922700E+000  1.390840418097600E+000  1.425194176424600E+000 
 1.460396472582300E+000  1.496468265455000E+000  1.533431031611800E+000  1.571306778092600E+000 
 1.610118055511500E+000  1.649887971482600E+000  1.690640204378200E+000  1.732399017426400E+000 
 1.775189273156800E+000  1.819036448203800E+000  1.863966648474400E+000  1.910006624691700E+000 
 1.957183788321600E+000  2.005526227893200E+000  2.055062725722100E+000  2.105822775047500E+000 
 2.157836597591100E+000  2.211135161551600E+000  2.265750200042000E+000  2.321714229983000E+000 
 2.379060571463600E+000  2.437823367578700E+000  2.498037604757900E+000  2.559739133595400E+000 
 2.622964690195200E+000  2.687751918043100E+000  2.754139390418700E+000  2.822166633362100E+000 
 2.891874149206100E+000  2.963303440691500E+000  3.036497035676600E+000  3.111498512457800E+000 
 3.188352525715500E+000  3.267104833100700E+000  3.347802322478300E+000  3.430493039843500E+000 
 3.515226217927600E+000  3.602052305510400E+000  3.691022997456500E+000  3.782191265493700E+000 
 3.875611389751400E+000  3.971338991078300E+000  4.069431064157900E+000  4.169946011442600E+000 
 4.272943677925200E+000  4.378485386770000E+000  4.486633975823200E+000  4.597453835026000E+000 
 4.711010944751200E+000  4.827372915086500E+000  4.946609026089200E+000  5.068790269033600E+000 
 5.193989388678700E+000  5.322280926579100E+000  5.453741265465600E+000  5.588448674722600E+000 
 5.726483356988200E+000  5.867927495905800E+000  6.012865305054700E+000  6.161383078089500E+000 
 6.313569240118400E+000  6.469514400349300E+000  6.629311406037900E+000  6.793055397767000E+000 
 6.960843866091900E+000  7.132776709584400E+000  7.308956294311100E+000  7.489487514780600E+000 
 7.674477856395700E+000  7.864037459448600E+000  8.058279184697000E+000  8.257318680559001E+000 
 8.461274451968800E+000  8.670267930932500E+000  8.884423548826501E+000  9.103868810482499E+000 
 9.328734370101399E+000  9.559154109042900E+000  9.795265215536300E+000  1.003720826636000E+001 
 1.028512731053900E+001  1.053916995510900E+001  1.079948745300100E+001  1.106623479309000E+001 
 1.133957079247900E+001  1.161965819105300E+001  1.190666374837200E+001  1.220075834295700E+001 
 1.250211707402800E+001  1.281091936575700E+001  1.312734907409100E+001  1.345159459622100E+001 
 1.378384898274800E+001  1.412431005262100E+001  1.447318051092100E+001  1.483066806954100E+001 
 1.519698557085900E+001  1.557235111445900E+001  1.595698818698600E+001  1.635112579520400E+001 
 1.675499860234600E+001  1.716884706782400E+001  1.759291759039900E+001  1.802746265488200E+001 
 1.847274098245800E+001  1.892901768472400E+001  1.939656442153700E+001  1.987565956274900E+001 
 2.036658835394900E+001  2.086964308629100E+001  2.138512327052300E+001  2.191333581530500E+001 
 2.245459520994300E+001  2.300922371162800E+001  2.357755153730600E+001  2.415991706027700E+001 
 2.475666701166600E+001  2.536815668685400E+001  2.599475015701900E+001  2.663682048589800E+001 
 2.729474995189900E+001  2.796893027571100E+001  2.865976285352100E+001  2.936765899600300E+001 
 3.009304017320500E+001  3.083633826548300E+001  3.159799582064000E+001  3.237846631741000E+001 
 3.317821443545000E+001  3.399771633200600E+001  3.483745992540600E+001  3.569794518556400E+001 
 3.657968443164700E+001  3.748320263710900E+001  3.840903774224500E+001  3.935774097447900E+001 
 4.032987717654800E+001  4.132602514280900E+001  4.234677796383700E+001  4.339274337954300E+001 
 4.446454414101800E+001  4.556281838130100E+001  4.668821999531900E+001  4.784141902920400E+001 
 4.902310207922500E+001  5.023397270058200E+001  5.147475182628600E+001  5.274617819639600E+001 
 5.404900879784600E+001  5.538401931515300E+001  5.675200459223800E+001  5.815377910566600E+001 
 5.959017744957600E+001  6.106205483258000E+001  6.257028758694500E+001  6.411577369034300E+001 
 6.569943330049399E+001  6.732220930301600E+001  6.898506787280100E+001  7.068899904925900E+001 
 7.243501732577600E+001  7.422416225372200E+001  7.605749906138900E+001  7.793611928820501E+001 
 7.986114143462400E+001
    </PP_R>
    <PP_RAB type="real" size="557" columns="4">
 2.499988404050665E-006  2.561738117630767E-006  2.625013049136259E-006  2.689850871449988E-006 
 2.756290187974742E-006  2.824370555617693E-006  2.894132508341422E-006  2.965617581297597E-006 
 3.038868335555524E-006  3.113928383443878E-006  3.190842414514859E-006  3.269656222153245E-006 
 3.350416730840586E-006  3.433172024092341E-006  3.517971373087481E-006  3.604865266002526E-006 
 3.693905438072935E-006  3.785144902393328E-006  3.878637981482400E-006  3.974440339624968E-006 
 4.072609016013856E-006  4.173202458709405E-006  4.276280559439328E-006  4.381904689257683E-006 
 4.490137735082235E-006  4.601044137138768E-006  4.714689927326004E-006  4.831142768531138E-006 
 4.950471994913813E-006  5.072748653188036E-006  5.198045544921829E-006  5.326437269881426E-006 
 5.458000270447615E-006  5.592812877127620E-006  5.730955355192557E-006  5.872509952465835E-006 
 6.017560948291779E-006  6.166194703714722E-006  6.318499712896405E-006  6.474566655804846E-006 
 6.634488452203239E-006  6.798360316972788E-006  6.966279816801951E-006  7.138346928276947E-006 
 7.314664097405287E-006  7.495336300611338E-006  7.680471107236397E-006  7.870178743585213E-006 
 8.064572158551682E-006  8.263767090867869E-006  8.467882138012448E-006  8.677038826821304E-006 
 8.891361685843676E-006  9.110978319484154E-006  9.336019483975378E-006  9.566619165229537E-006 
 9.802914658610636E-006  1.004504665067850E-005  1.029315930295016E-005  1.054740033773307E-005 
 1.080792112607497E-005  1.107487677788901E-005  1.134842623430295E-005  1.162873236229018E-005 
 1.191596205163883E-005  1.221028631431415E-005  1.251188038627782E-005  1.282092383181891E-005 
 1.313760065046492E-005  1.346209938653118E-005  1.379461324137863E-005  1.413534018844072E-005 
 1.448448309109514E-005  1.484224982344518E-005  1.520885339408431E-005  1.558451207291820E-005 
 1.596944952111926E-005  1.636389492429098E-005  1.676808312892089E-005  1.718225478220530E-005 
 1.760665647532574E-005  1.804154089026617E-005  1.848716695025568E-005  1.894379997392718E-005 
 1.941171183328323E-005  1.989118111556518E-005  2.038249328911966E-005  2.088594087336088E-005 
 2.140182361293289E-005  2.193044865617228E-005  2.247213073797972E-005  2.302719236720795E-005 
 2.359596401867787E-005  2.417878432993927E-005  2.477600030288802E-005  2.538796751037118E-005 
 2.601505030787648E-005  2.665762205048201E-005  2.731606531512740E-005  2.799077212841126E-005 
 2.868214419998331E-005  2.939059316172194E-005  3.011654081281635E-005  3.086041937089265E-005 
 3.162267172935462E-005  3.240375172107080E-005  3.320412438858127E-005  3.402426626097789E-005 
 3.486466563762363E-005  3.572582287887487E-005  3.660825070398201E-005  3.751247449637110E-005 
 3.843903261643091E-005  3.938847672205661E-005  4.036137209709183E-005  4.135829798788848E-005 
 4.237984794818937E-005  4.342663019251182E-005  4.449926795826629E-005  4.559839987683486E-005 
 4.672468035379211E-005  4.787877995853238E-005  4.906138582350792E-005  5.027320205334680E-005 
 5.151495014406481E-005  5.278736941262313E-005  5.409121743711682E-005  5.542727050781170E-005 
 5.679632408935625E-005  5.819919329436145E-005  5.963671336873406E-005  6.110974018894143E-005 
 6.261915077160797E-005  6.416584379566552E-005  6.575074013741835E-005  6.737478341881357E-005 
 6.903894056925825E-005  7.074420240132011E-005  7.249158420063144E-005  7.428212633038644E-005 
 7.611689485074705E-005  7.799698215356208E-005  7.992350761275352E-005  8.189761825078964E-005 
 8.392048942158420E-005  8.599332551029740E-005  8.811736065040213E-005  9.029385945846712E-005 
 9.252411778709103E-005  9.480946349643183E-005  9.715125724479229E-005  9.955089329874023E-005 
 1.020098003632171E-004  1.045294424321887E-004  1.071113196602653E-004  1.097569692558741E-004 
 1.124679663964943E-004  1.152459251664860E-004  1.180924995180992E-004  1.210093842561953E-004 
 1.239983160473231E-004  1.270610744536937E-004  1.301994829926995E-004  1.334154102226182E-004 
 1.367107708551165E-004  1.400875268952394E-004  1.435476888095523E-004  1.470933167231482E-004 
 1.507265216462083E-004  1.544494667308714E-004  1.582643685591216E-004  1.621734984625337E-004 
 1.661791838745566E-004  1.702838097162584E-004  1.744898198162513E-004  1.787997183657127E-004 
 1.832160714093451E-004  1.877415083731557E-004  1.923787236299726E-004  1.971304781036323E-004 
 2.019996009127930E-004  2.069889910553390E-004  2.121016191344048E-004  2.173405291270269E-004 
 2.227088401964634E-004  2.282097485493151E-004  2.338465293384852E-004  2.396225386131450E-004 
 2.455412153168794E-004  2.516060833352234E-004  2.578207535935981E-004  2.641889262073508E-004 
 2.707143926846795E-004  2.774010381839881E-004  2.842528438271420E-004  2.912738890696736E-004 
 2.984683541296928E-004  3.058405224767006E-004  3.133947833818644E-004  3.211356345313929E-004 
 3.290676847043261E-004  3.371956565165217E-004  3.455243892324740E-004  3.540588416465259E-004 
 3.628040950351815E-004  3.717653561825461E-004  3.809479604802583E-004  3.903573751041360E-004 
 3.999992022691942E-004  4.098791825652564E-004  4.200031983746214E-004  4.303772773744732E-004 
 4.410075961256148E-004  4.519004837499232E-004  4.630624256985444E-004  4.745000676132986E-004 
 4.862202192833408E-004  4.982298586996413E-004  5.105361362095307E-004  5.231463787738934E-004 
 5.360680943295998E-004  5.493089762595407E-004  5.628769079731702E-004  5.767799676000906E-004 
 5.910264327998330E-004  6.056247856899747E-004  6.205837178965257E-004  6.359121357285588E-004 
 6.516191654810620E-004  6.677141588684511E-004  6.842066985925018E-004  7.011066040477273E-004 
 7.184239371677122E-004  7.361690084157487E-004  7.543523829236290E-004  7.729848867818375E-004 
 7.920776134853431E-004  8.116419305384280E-004  8.316894862227297E-004  8.522322165324435E-004 
 8.732823522807909E-004  8.948524263821165E-004  9.169552813137635E-004  9.396040767621937E-004 
 9.628122974582301E-004  9.865937612054490E-004  1.010962627107236E-003  1.035933403996777E-003 
 1.061520959075496E-003  1.087740526764651E-003  1.114607717775748E-003  1.142138528404798E-003 
 1.170349350056402E-003  1.199256979002796E-003  1.228878626384178E-003  1.259231928455847E-003 
 1.290334957088725E-003  1.322206230528799E-003  1.354864724422872E-003  1.388329883116102E-003 
 1.422621631229085E-003  1.457760385520450E-003  1.493767067042783E-003  1.530663113598745E-003 
 1.568470492504651E-003  1.607211713669498E-003  1.646909842997134E-003  1.687588516119176E-003 
 1.729271952467324E-003  1.771984969693262E-003  1.815752998444685E-003  1.860602097506263E-003 
 1.906558969314674E-003  1.953650975856738E-003  2.001906154960398E-003  2.051353236987919E-003 
 2.102021661941534E-003  2.153941596991487E-003  2.207143954437160E-003  2.261660410111759E-003 
 2.317523422241521E-003  2.374766250770895E-003  2.433422977164923E-003  2.493528524700942E-003 
 2.555118679261050E-003  2.618230110638765E-003  2.682900394371634E-003  2.749168034112533E-003 
 2.817072484555071E-003  2.886654174923605E-003  2.957954533044217E-003  3.031016010010313E-003 
 3.105882105457736E-003  3.182597393462563E-003  3.261207549081101E-003  3.341759375543322E-003 
 3.424300832119241E-003  3.508881062672636E-003  3.595550424920664E-003  3.684360520416197E-003 
 3.775364225270449E-003  3.868615721634690E-003  3.964170529958846E-003  4.062085542048954E-003 
 4.162419054937622E-003  4.265230805594572E-003  4.370582006492652E-003  4.478535382052971E-003 
 4.589155205989653E-003  4.702507339577645E-003  4.818659270865293E-003  4.937680154855580E-003 
 5.059640854680692E-003  5.184613983791137E-003  5.312673949190874E-003  5.443896995735794E-003 
 5.578361251530450E-003  5.716146774443260E-003  5.857335599772180E-003  6.002011789086442E-003 
 6.150261480276825E-003  6.302172938839822E-003  6.457836610429141E-003  6.617345174706746E-003 
 6.780793600521975E-003  6.948279202454870E-003  7.119901698755411E-003  7.295763270714780E-003 
 7.475968623501366E-003  7.660625048501739E-003  7.849842487199792E-003  8.043733596633592E-003 
 8.242413816470427E-003  8.446001437737372E-003  8.654617673249378E-003  8.868386729778764E-003 
 9.087435882004200E-003  9.311895548289678E-003  9.541899368332513E-003  9.777584282730406E-003 
 1.001909061451366E-002  1.026656215269234E-002  1.052014623786377E-002  1.077999384993892E-002 
 1.104625969803255E-002  1.131910231257374E-002  1.159868413969448E-002  1.188517163794489E-002 
 1.217873537740217E-002  1.247955014122394E-002  1.278779502971223E-002  1.310365356694616E-002 
 1.342731381004974E-002  1.375896846115782E-002  1.409881498214853E-002  1.444705571220750E-002 
 1.480389798829918E-002  1.516955426860999E-002  1.554424225904466E-002  1.592818504284304E-002 
 1.632161121340142E-002  1.672475501037238E-002  1.713785645912844E-002  1.756116151366906E-002 
 1.799492220305677E-002  1.843939678147208E-002  1.889484988197451E-002  1.936155267405927E-002 
 1.983978302510856E-002  2.032982566582871E-002  2.083197235977473E-002  2.134652207706116E-002 
 2.187378117236458E-002  2.241406356732183E-002  2.296769093743483E-002  2.353499290358946E-002 
 2.411630722830797E-002  2.471198001684823E-002  2.532236592326394E-002  2.594782836156832E-002 
 2.658873972209964E-002  2.724548159323370E-002  2.791844498858827E-002  2.860803057980530E-002 
 2.931464893512573E-002  3.003872076382512E-002  3.078067716669063E-002  3.154095989270790E-002 
 3.232002160205764E-002  3.311832613562943E-002  3.393634879117971E-002  3.477457660632158E-002 
 3.563350864849803E-002  3.651365631211391E-002  3.741554362302463E-002  3.833970755051305E-002 
 3.928669832701104E-002  4.025707977568738E-002  4.125142964614636E-002  4.227033995840761E-002 
 4.331441735537949E-002  4.438428346405802E-002  4.548057526561943E-002  4.660394547467980E-002 
 4.775506292790475E-002  4.893461298222539E-002  5.014329792288484E-002  5.138183738158165E-002 
 5.265096876490493E-002  5.395144769339809E-002  5.528404845142686E-002  5.664956444817619E-002 
 5.804880869004663E-002  5.948261426468954E-002  6.095183483702751E-002  6.245734515750161E-002 
 6.400004158289174E-002  6.558084260999109E-002  6.720068942245629E-002  6.886054645119237E-002 
 7.056140194853576E-002  7.230426857666482E-002  7.409018401050893E-002  7.592021155556820E-002 
 7.779544078099056E-002  7.971698816828168E-002  8.168599777603855E-002  8.370364192110635E-002 
 8.577112187655685E-002  8.788966858690751E-002  9.006054340100396E-002  9.228503882300935E-002 
 9.456447928193783E-002  9.690022192020267E-002  9.929365740163085E-002  1.017462107394511E-001 
 1.042593421447148E-001  1.068345478956904E-001  1.094733612287135E-001  1.121773532510619E-001 
 1.149481338763645E-001  1.177873527831094E-001  1.206967003968538E-001  1.236779088966560E-001 
 1.267327532464027E-001  1.298630522515897E-001  1.330706696422038E-001  1.363575151823663E-001 
 1.397255458073695E-001  1.431767667888114E-001  1.467132329284957E-001  1.503370497818283E-001 
 1.540503749114416E-001  1.578554191717536E-001  1.617544480252952E-001  1.657497828915191E-001 
 1.698438025289410E-001  1.740389444514066E-001  1.783377063793555E-001  1.827426477269260E-001 
 1.872563911257815E-001  1.918816239865865E-001  1.966211000990557E-001  2.014776412715020E-001 
 2.064541390109079E-001  2.115535562444790E-001  2.167789290837169E-001  2.221333686320843E-001 
 2.276200628372963E-001  2.332422783893775E-001  2.390033626655961E-001  2.449067457234352E-001 
 2.509559423428018E-001  2.571545541186613E-001  2.635062716054120E-001  2.700148765140626E-001 
 2.766842439639521E-001  2.835183447898560E-001  2.905212479061653E-001  2.976971227294527E-001 
 3.050502416608692E-001  3.125849826299051E-001  3.203058317008590E-001  3.282173857438690E-001 
 3.363243551717509E-001  3.446315667444718E-001  3.531439664430666E-001  3.618666224142165E-001 
 3.708047279878559E-001  3.799636047691506E-001  3.893487058069453E-001  3.989656188403632E-001 
 4.088200696257315E-001  4.189179253454884E-001  4.292651981015158E-001  4.398680484946268E-001 
 4.507327892924541E-001  4.618658891879604E-001  4.732739766509108E-001  4.849638438741892E-001 
 4.969424508178840E-001  5.092169293530726E-001  5.217945875081085E-001  5.346829138195607E-001 
 5.478895817909031E-001  5.614224544611239E-001  5.752895890863329E-001  5.894992419367542E-001 
 6.040598732125958E-001  6.189801520809433E-001  6.342689618373354E-001  6.499354051947330E-001 
 6.659888097030263E-001  6.824387333026933E-001  6.992949700152683E-001  7.165675557746463E-001 
 7.342667744022977E-001  7.524031637300305E-001  7.709875218741518E-001  7.900309136644480E-001 
 8.095446772319592E-001  8.295404307595980E-001  8.500300793993467E-001  8.710258223605221E-001 
 8.925401601728166E-001  9.145859021290929E-001  9.371761739116669E-001  9.603244254072985E-001 
 9.840444387148434E-001  1.008350336351106E+000  1.033256589658994E+000  1.058778027423552E+000 
 1.084929844700921E+000  1.111727611865030E+000  1.139187283878093E+000  1.167325209789897E+000 
 1.196158142471699E+000  1.225703248590754E+000  1.255978118830936E+000  1.287000778366078E+000 
 1.318789697591696E+000  1.351363803122216E+000  1.384742489059353E+000  1.418945628539112E+000 
 1.453993585564029E+000  1.489907227127448E+000  1.526707935637502E+000  1.564417621647760E+000 
 1.603058736902448E+000  1.642654287703934E+000  1.683227848610233E+000  1.724803576470901E+000 
 1.767406224809740E+000  1.811061158562524E+000  1.855794369179020E+000  1.901632490097735E+000 
 1.948602812603157E+000
    </PP_RAB>
  </PP_MESH>
  <PP_LOCAL type="real" size="557" columns="4">
-9.369850854837001E+000 -9.369886544340400E+000 -9.369921373562200E+000 -9.369955363239001E+000 
-9.369988533607600E+000 -9.370020904417199E+000 -9.370052494941000E+000 -9.370083323987600E+000 
-9.370113409911600E+000 -9.370142770626201E+000 -9.370171423612000E+000 -9.370199385928800E+000 
-9.370226674224600E+000 -9.370253304746800E+000 -9.370279293350400E+000 -9.370304655508599E+000 
-9.370329406322000E+000 -9.370353560526601E+000 -9.370377132503400E+000 -9.370400136287000E+000 
-9.370422585573200E+000 -9.370444493728000E+000 -9.370465873795400E+000 -9.370486738504599E+000 