<UPF version="2.0.1">
  <PP_INFO>
    Generated using FHI98PP, converted with fhi2upf.x v.5.0.1
    Author: Abinit web site
    Generation date: 10-Jul-2012, PG
    Pseudopotential type: SL
    Element: Po
    Functional: SLA-PW

    Suggested minimum cutoff for wavefunctions:   0. Ry
    Suggested minimum cutoff for charge density:   0. Ry
    The Pseudo was generated with a Non-Relativistic Calculation
    L component and cutoff radius for Local Potential:  0   0.0000

    Valence configuration: 
    nl pn  l   occ       Rcut    Rcut US       E pseu
    6s  6  0  2.00      0.000      0.000     0.000000
    6p  6  1  4.00      0.000      0.000     0.000000
    6d  6  2  0.00      0.000      0.000     0.000000
    5f  5  3  9.00      0.000      0.000     0.000000

    Generation configuration: not available.
    Comment:
    polonium, fhi98PP : Trouiller-Martins-type, LDA Ceperley/Alder Perdew/Wang (1992
  </PP_INFO>
  <!--                               -->
  <!-- END OF HUMAN READABLE SECTION -->
  <!--                               -->
  <PP_HEADER generated="Generated using FHI98PP, converted with fhi2upf.x v.5.0.1"
             author="Abinit web site"
             date="10-Jul-2012, PG"
             comment="polonium, fhi98PP : Trouiller-Martins-type, LDA Ceperley/Alder Perdew/Wang (1992"
             element="Po"
             pseudo_type="SL"
             relativistic="no"
             is_ultrasoft="F"
             is_paw="F"
             is_coulomb="F"
             has_so="F"
             has_wfc="F"
             has_gipaw="F"
             paw_as_gipaw="F"
             core_correction="T"
             functional="SLA-PW"
             z_valence="6.000000000000000E+000"
             total_psenergy="0.000000000000000E+000"
             wfc_cutoff="0.000000000000000E+000"
             rho_cutoff="0.000000000000000E+000"
             l_max="3"
             l_max_rho="0"
             l_local="0"
             mesh_size="569"
             number_of_wfc="4"
             number_of_proj="3"/>
  <PP_MESH dx="2.439988682353512E-002" mesh="569" xmin="-5.075173815233826E+000" rmax="7.772252416754000E+001"
zmesh="8.400000000000000E+001">
    <PP_R type="real" size="569" columns="4">
 7.440476190476201E-005  7.624255952380999E-005  7.812575074404800E-005  8.005545678742600E-005 
 8.203282657007500E-005  8.405903738635600E-005  8.613529560979900E-005  8.826283741136100E-005 
 9.044292949542101E-005  9.267686985395801E-005  9.496598853935100E-005  9.731164845627300E-005 
 9.971524617314300E-005  1.021782127536200E-004  1.047020146086300E-004  1.072881543694700E-004 
 1.099381717823900E-004  1.126536446254200E-004  1.154361896476700E-004  1.182874635319600E-004 
 1.212091638812000E-004  1.242030302290700E-004  1.272708450757300E-004  1.304144349491000E-004 
 1.336356714923400E-004  1.369364725782000E-004  1.403188034508800E-004  1.437846778961200E-004 
 1.473361594401500E-004  1.509753625783200E-004  1.547044540340100E-004  1.585256540486500E-004 
 1.624412377036500E-004  1.664535362749300E-004  1.705649386209200E-004  1.747778926048600E-004 
 1.790949065522000E-004  1.835185507440400E-004  1.880514589474200E-004  1.926963299834200E-004 
 1.974559293340100E-004  2.023330907885600E-004  2.073307181310300E-004  2.124517868688700E-004 
 2.176993460045300E-004  2.230765198508400E-004  2.285865098911600E-004  2.342325966854700E-004 
 2.400181418236000E-004  2.459465899266500E-004  2.520214706978300E-004  2.582464010240700E-004 
 2.646250871293600E-004  2.711613267814600E-004  2.778590115529600E-004  2.847221291383200E-004 
 2.917547657280400E-004  2.989611084415200E-004  3.063454478200200E-004  3.139121803811800E-004 
 3.216658112365900E-004  3.296109567741400E-004  3.377523474064600E-004  3.460948303874000E-004 
 3.546433726979700E-004  3.634030640036100E-004  3.723791196845000E-004  3.815768839407000E-004 
 3.910018329740400E-004  4.006595782485000E-004  4.105558698312400E-004  4.206965998160700E-004 
 4.310878058315200E-004  4.417356746355600E-004  4.526465457990600E-004  4.638269154803000E-004 
 4.752834402926600E-004  4.870229412678900E-004  4.990524079172100E-004  5.113790023927600E-004 
 5.240100637518600E-004  5.369531123265300E-004  5.502158542010000E-004  5.638061857997600E-004 
 5.777321985890200E-004  5.920021838941700E-004  6.066246378363500E-004  6.216082663909100E-004 
 6.369619905707700E-004  6.526949517378600E-004  6.688165170457900E-004  6.853362850168200E-004 
 7.022640912567400E-004  7.196100143107800E-004  7.373843816642500E-004  7.555977758913599E-004 
 7.742610409558800E-004  7.933852886674901E-004  8.129819052975700E-004  8.330625583584200E-004 
 8.536392035498800E-004  8.747240918775600E-004  8.963297769469300E-004  9.184691224375200E-004 
 9.411553097617300E-004  9.644018459128500E-004  9.882225715068900E-004  1.012631669023100E-003 
 1.037643671248000E-003  1.063273469927800E-003  1.089536324635000E-003  1.116447871853500E-003 
 1.144024134288300E-003  1.172281530405200E-003  1.201236884206200E-003  1.230907435246100E-003 
 1.261310848896700E-003  1.292465226864400E-003  1.324389117968000E-003  1.357101529181800E-003 
 1.390621936952600E-003  1.424970298795300E-003  1.460167065175600E-003  1.496233191685400E-003 
 1.533190151520000E-003  1.571059948262600E-003  1.609865128984700E-003  1.649628797670600E-003 
 1.690374628973000E-003  1.732126882308700E-003  1.774910416301700E-003  1.818750703584400E-003 
 1.863673845962900E-003  1.909706589958200E-003  1.956876342730100E-003  2.005211188395600E-003 
 2.054739904748900E-003  2.105491980396200E-003  2.157497632312000E-003  2.210787823830100E-003 
 2.265394283078700E-003  2.321349521870800E-003  2.378686855061000E-003  2.437440420381000E-003 
 2.497645198764400E-003  2.559337035173900E-003  2.622552659942700E-003  2.687329710643300E-003 
 2.753706754496200E-003  2.821723311332200E-003  2.891419877122100E-003  2.962837948087000E-003 
 3.036020045404800E-003  3.111009740526300E-003  3.187851681117300E-003  3.266591617640900E-003 
 3.347276430596600E-003  3.429954158432400E-003  3.514674026145600E-003  3.601486474591400E-003 
 3.690443190513800E-003  3.781597137319500E-003  3.875002586611300E-003  3.970715150500600E-003 
 4.068791814718000E-003  4.169290972541500E-003  4.272272459563300E-003  4.377797589314500E-003 
 4.485929189770600E-003  4.596731640757900E-003  4.710270912284600E-003  4.826614603818100E-003 
 4.945831984532400E-003  5.067994034550300E-003  5.193173487203700E-003  5.321444872337600E-003 
 5.452884560684400E-003  5.587570809333300E-003  5.725583808323800E-003  5.867005728389400E-003 
 6.011920769880600E-003  6.160415212896700E-003  6.312577468655200E-003  6.468498132131000E-003 
 6.628270035994600E-003  6.791988305883700E-003  6.959750417039000E-003  7.131656252339900E-003 
 7.307808161772700E-003  7.488311023368500E-003  7.673272305645700E-003  7.862802131595100E-003 
 8.057013344245500E-003  8.256021573848400E-003  8.459945306722399E-003  8.668905955798500E-003 
 8.883027932906700E-003  9.102438722849500E-003  9.327268959303900E-003  9.557652502598700E-003 
 9.793726519412901E-003  1.003563156444200E-002  1.028351166408400E-002  1.053751440218700E-002 
 1.079779100792100E-002  1.106449644581700E-002  1.133778950802800E-002  1.161783290887700E-002 
 1.190479338172600E-002  1.219884177825400E-002  1.250015317017700E-002  1.280890695348100E-002 
 1.312528695523200E-002  1.344948154302600E-002  1.378168373713900E-002  1.412209132544600E-002 
 1.447090698118500E-002  1.482833838362000E-002  1.519459834169500E-002  1.556990492073500E-002 
 1.595448157227700E-002  1.634855726711200E-002  1.675236663161000E-002  1.716615008741100E-002 
 1.759015399457000E-002  1.802463079823600E-002  1.846983917895200E-002  1.892604420667200E-002 
 1.939351749857700E-002  1.987253738079200E-002  2.036338905409800E-002  2.086636476373400E-002 
 2.138176397339800E-002  2.190989354354100E-002  2.245106791406600E-002  2.300560929154400E-002 
 2.357384784104500E-002  2.415612188271900E-002  2.475277809322200E-002  2.536417171212500E-002 
 2.599066675341400E-002  2.663263622222300E-002  2.729046233691200E-002  2.796453675663400E-002 
 2.865526081452300E-002  2.936304575664200E-002  3.008831298683100E-002  3.083149431760500E-002 
 3.159303222725000E-002  3.237338012326300E-002  3.317300261230800E-002  3.399237577683200E-002 
 3.483198745852000E-002  3.569233754874500E-002  3.657393828619900E-002  3.747731456186800E-002 
 3.840300423154600E-002  3.935155843606600E-002  4.032354192943600E-002  4.131953341509300E-002 
 4.234012589044600E-002  4.338592699994000E-002  4.445755939683900E-002  4.555566111394100E-002 
 4.668088594345500E-002  4.783390382625800E-002  4.901540125076700E-002  5.022608166166100E-002 
 5.146666587870400E-002  5.273789252590800E-002  5.404051847129800E-002  5.537531927753900E-002 
 5.674308966369400E-002  5.814464397838700E-002  5.958081668465300E-002  6.105246285676400E-002 
 6.256045868932600E-002  6.410570201895301E-002  6.568911285882099E-002  6.731163394643400E-002 
 6.897423130491100E-002  7.067789481814200E-002  7.242363882015000E-002  7.421250269900800E-002 
 7.604555151567299E-002  7.792387663811000E-002  7.984859639107200E-002  8.182085672193100E-002 
 8.384183188296300E-002  8.591272513047200E-002  8.803476944119500E-002  9.020922824639201E-002 
 9.243739618407799E-002  9.472059986982501E-002  9.706019868661001E-002  9.945758559416901E-002 
 1.019141879583400E-001  1.044314684009200E-001  1.070109256704200E-001  1.096540955344800E-001 
 1.123625516941800E-001  1.151379067210300E-001  1.179818130170300E-001  1.208959637985600E-001 
 1.238820941043800E-001  1.269419818287600E-001  1.300774487799300E-001  1.332903617647900E-001 
 1.365826337003800E-001  1.399562247527800E-001  1.434131435041800E-001  1.469554481487300E-001 
 1.505852477180000E-001  1.543047033366400E-001  1.581160295090500E-001  1.620214954379300E-001 
 1.660234263752400E-001  1.701242050067100E-001  1.743262728703800E-001  1.786321318102800E-001 
 1.830443454659900E-001  1.875655407990000E-001  1.921984096567300E-001  1.969457103752600E-001 
 2.018102694215200E-001  2.067949830762400E-001  2.119028191582200E-001  2.171368187914300E-001 
 2.225000982155800E-001  2.279958506415000E-001  2.336273481523500E-001  2.393979436517100E-001 
 2.453110728599100E-001  2.513702563595500E-001  2.575791016916300E-001  2.639413055034100E-001 
 2.704606557493400E-001  2.771410339463500E-001  2.839864174848300E-001  2.910008819967000E-001 
 2.981886037820200E-001  3.055538622954400E-001  3.131010426941300E-001  3.208346384486800E-001 
 3.287592540183600E-001  3.368796075926100E-001  3.452005339001500E-001  3.537269870874900E-001 
 3.624640436685500E-001  3.714169055471600E-001  3.805909031141700E-001  3.899914984211000E-001 
 3.996242884321000E-001  4.094950083563700E-001  4.196095350627700E-001  4.299738905788200E-001 
 4.405942456761200E-001  4.514769235443200E-001  4.626284035558600E-001  4.740553251236900E-001 
 4.857644916542500E-001  4.977628745981100E-001  5.100576176006800E-001  5.226560407554200E-001 
 5.355656449620800E-001  5.487941163926400E-001  5.623493310675400E-001  5.762393595449100E-001 
 5.904724717256700E-001  6.050571417772900E-001  6.200020531791900E-001  6.353161038927100E-001 
 6.510084116588600E-001  6.670883194268400E-001  6.835654009166801E-001  7.004494663193200E-001 
 7.177505681374100E-001  7.354790071704000E-001  7.536453386475100E-001  7.722603785121100E-001 
 7.913352098613600E-001  8.108811895449300E-001  8.309099549266900E-001  8.514334308133800E-001 
 8.724638365544700E-001  8.940136933173700E-001  9.160958315423100E-001  9.387233985814000E-001 
 9.619098665263600E-001  9.856690402295600E-001  1.010015065523200E+000  1.034962437641700E+000 
 1.060526009851400E+000  1.086721002294700E+000  1.113563011051400E+000  1.141068017424400E+000 
 1.169252397454800E+000  1.198132931671900E+000  1.227726815084200E+000  1.258051667416800E+000 
 1.289125543602000E+000  1.320966944528900E+000  1.353594828058800E+000  1.387028620311900E+000 
 1.421288227233600E+000  1.456394046446200E+000  1.492366979393400E+000  1.529228443784500E+000 
 1.567000386345900E+000  1.605705295888700E+000  1.645366216697100E+000  1.686006762249600E+000 
 1.727651129277100E+000  1.770324112170300E+000  1.814051117740900E+000  1.858858180349100E+000 
 1.904771977403700E+000  1.951819845245600E+000  2.000029795423100E+000  2.049430531370100E+000 
 2.100051465494900E+000  2.151922736692600E+000  2.205075228289000E+000  2.259540586427700E+000 
 2.315351238912500E+000  2.372540414513600E+000  2.431142162752100E+000  2.491191374172100E+000 
 2.552723801114100E+000  2.615776079001600E+000  2.680385748153000E+000  2.746591276132300E+000 
 2.814432080652800E+000  2.883948553044900E+000  2.955182082305100E+000  3.028175079738100E+000 
 3.102971004207600E+000  3.179614388011500E+000  3.258150863395400E+000  3.338627189721300E+000 
 3.421091281307400E+000  3.505592235955700E+000  3.592180364183800E+000  3.680907219179100E+000 
 3.771825627492900E+000  3.864989720491900E+000  3.960454966588100E+000  4.058278204262800E+000 
 4.158517675908100E+000  4.261233062503000E+000  4.366485519146900E+000  4.474337711469800E+000 
 4.584853852943100E+000  4.698099743110800E+000  4.814142806765600E+000  4.933052134092700E+000 
 5.054898521804800E+000  5.179754515293400E+000  5.307694451821100E+000  5.438794504781100E+000 
 5.573132729049200E+000  5.710789107456700E+000  5.851845598410900E+000  5.996386184691700E+000 
 6.144496923453600E+000  6.296265997462900E+000  6.451783767600200E+000  6.611142826659900E+000 
 6.774438054478400E+000  6.941766674424000E+000  7.113228311282300E+000  7.288925050571000E+000 
 7.468961499320100E+000  7.653444848353300E+000  7.842484936107600E+000  8.036194314029499E+000 
 8.234688313586000E+000  8.438085114931599E+000  8.646505817270400E+000  8.860074510956901E+000 
 9.078918351377601E+000  9.303167634656599E+000  9.532955875232600E+000  9.768419885350900E+000 
 1.000969985651900E+001  1.025693944297500E+001  1.051028584721700E+001  1.076988990764300E+001 
 1.103590618836200E+001  1.130849307121400E+001  1.158781285007300E+001  1.187403182747000E+001 
 1.216732041360800E+001  1.246785322782500E+001  1.277580920255200E+001  1.309137168985500E+001 
 1.341472857059400E+001  1.374607236628800E+001  1.408560035373500E+001  1.443351468247200E+001 
 1.479002249513000E+001  1.515533605075900E+001  1.552967285121300E+001  1.591325577063800E+001 
 1.630631318817300E+001  1.670907912392100E+001  1.712179337828100E+001  1.754470167472500E+001 
 1.797805580609100E+001  1.842211378450100E+001  1.887713999497800E+001  1.934340535285400E+001 
 1.982118746507000E+001  2.031077079545700E+001  2.081244683410500E+001  2.132651427090700E+001 
 2.185327917339900E+001  2.239305516898100E+001  2.294616363165500E+001  2.351293387335700E+001 
 2.409370334002900E+001  2.468881781252800E+001  2.529863161249700E+001  2.592350781332600E+001 
 2.656381845631500E+001  2.721994477218600E+001  2.789227740805900E+001  2.858121666003800E+001 
 2.928717271154100E+001  3.001056587751600E+001  3.075182685469100E+001  3.151139697800200E+001 
 3.228972848335800E+001  3.308728477689700E+001  3.390454071088700E+001  3.474198286644600E+001 
 3.560010984324700E+001  3.647943255637500E+001  3.738047454051700E+001  3.830377226166800E+001 
 3.924987543653100E+001  4.021934735981400E+001  4.121276523960100E+001  4.223072054101900E+001 
 4.327381933838200E+001  4.434268267604000E+001  4.543794693813900E+001  4.656026422751100E+001 
 4.771030275393000E+001  4.888874723195200E+001  5.009629928858100E+001  5.133367788100900E+001 
 5.260161972467000E+001  5.390087973187000E+001  5.523223146124700E+001  5.659646757834000E+001 
 5.799440032752500E+001  5.942686201561400E+001  6.089470550740000E+001  6.239880473343300E+001 
 6.394005521034900E+001  6.551937457404399E+001  6.713770312602300E+001  6.879600439323600E+001 
 7.049526570174901E+001  7.223649876458200E+001  7.402074028406700E+001  7.584905256908399E+001 
 7.772252416754000E+001
    </PP_R>
    <PP_RAB type="real" size="569" columns="4">
 1.815467769608270E-006  1.860309823517604E-006  1.906259476158486E-006  1.953344085219601E-006 
 2.001591684124515E-006  2.051030998722394E-006  2.101691464390837E-006  2.153603243561290E-006 
 2.206797243677239E-006  2.261305135596069E-006  2.317159372445298E-006  2.374393208944698E-006 
 2.433040721205633E-006  2.493136827019421E-006  2.554717306646693E-006  2.617818824121033E-006 
 2.682478949076678E-006  2.748736179118993E-006  2.816629962743284E-006  2.886200722822862E-006 
 2.957489880676601E-006  3.030539880729420E-006  3.105394215783485E-006  3.182097452913324E-006 
 3.260695260000215E-006  3.341234432922201E-006  3.423762923415341E-006  3.508329867623780E-006 
 3.594985615353986E-006  3.683781760053188E-006  3.774771169526635E-006  3.868008017413942E-006 
 3.963547815444026E-006  4.061447446485490E-006  4.161765198413663E-006  4.264560798814559E-006 
 4.369895450545279E-006  4.477831868173763E-006  4.588434315317709E-006  4.701768642906025E-006 
 4.817902328385793E-006  4.936904515896921E-006  5.058846057439393E-006  5.183799555058233E-006 
 5.311839404068145E-006  5.443041837348582E-006  5.577484970731195E-006  5.715248849508216E-006 
 5.856415496091041E-006  6.001068958844663E-006  6.149295362127924E-006  6.301182957572573E-006 
 6.456822176624504E-006  6.616305684387247E-006  6.779728434791562E-006  6.947187727130959E-006 
 7.118783263991179E-006  7.294617210611698E-006  7.474794255713673E-006  7.659421673829935E-006 
 7.848609389173409E-006  8.042470041086142E-006  8.241119051100940E-006  8.444674691663143E-006 
 8.653258156547253E-006  8.866993633013974E-006  9.086008375749439E-006  9.310432782630277E-006 
 9.540400472361358E-006  9.776048364028715E-006  1.001751675862027E-005  1.026494942255815E-005 
 1.051849367329517E-005  1.077830046702560E-005  1.104452448856117E-005  1.131732424342871E-005 
 1.159686215224132E-005  1.188330464740171E-005  1.217682227219261E-005  1.247758978231564E-005 
 1.278578624993881E-005  1.310159517031227E-005  1.342520457101910E-005  1.375680712392316E-005 
 1.409660025988420E-005  1.444478628630337E-005  1.480157250757492E-005  1.516717134851208E-005 
 1.554180048082043E-005  1.592568295269650E-005  1.631904732162822E-005  1.672212779047241E-005 
 1.713516434689720E-005  1.755840290626552E-005  1.799209545805013E-005  1.843650021586404E-005 
 1.889188177119596E-005  1.935851125094450E-005  1.983666647884266E-005  2.032663214087007E-005 
 2.082869995474973E-005  2.134316884363200E-005  2.187034511406957E-005  2.241054263838711E-005 
 2.296408304155535E-005  2.353129589268190E-005  2.411251890123096E-005  2.470809811809112E-005 
 2.531838814160869E-005  2.594375232870579E-005  2.658456301122442E-005  2.724120171760204E-005 
 2.791405940002727E-005  2.860353666720743E-005  2.931004402288725E-005  3.003400211025273E-005 
 3.077584196237649E-005  3.153600525884600E-005  3.231494458874070E-005  3.311312372008237E-005 
 3.393101787596863E-005  3.476911401750435E-005  3.562791113373807E-005  3.650792053874049E-005 
 3.740966617604666E-005  3.833368493059638E-005  3.928052694838245E-005  4.025075596400696E-005 
 4.124494963631637E-005  4.226369989233502E-005  4.330761327967509E-005  4.437731132768423E-005 
 4.547343091747719E-005  4.659662466113927E-005  4.774756129026777E-005  4.892692605413900E-005 
 5.013542112767449E-005  5.137376602952811E-005  5.264269805045779E-005  5.394297269230395E-005 
 5.527536411780376E-005  5.664066561151489E-005  5.803969005211909E-005  5.947327039640627E-005 
 6.094226017519724E-005  6.244753400152508E-005  6.398998809136287E-005  6.557054079721990E-005 
 6.719013315491149E-005  6.884972944383643E-005  7.055031776109907E-005  7.229291060979782E-005 
 7.407854550186108E-005  7.590828557575709E-005  7.778322022947829E-005  7.970446576914647E-005 
 8.167316607364366E-005  8.369049327566420E-005  8.575764845957117E-005  8.787586237652266E-005 
 9.004639617722258E-005  9.227054216280021E-005  9.454962455422158E-005  9.688500028071087E-005 
 9.927805978764529E-005  1.017302278643993E-004  1.042429644926506E-004  1.068177657156187E-004 
 1.094561645287952E-004  1.121597317926557E-004  1.149300771679338E-004  1.177688500739834E-004 
 1.206777406708107E-004  1.236584808653785E-004  1.267128453427535E-004  1.298426526227187E-004 
 1.330497661425014E-004  1.363360953662211E-004  1.397035969217659E-004  1.431542757657336E-004 
 1.466901863771468E-004  1.503134339806635E-004  1.540261757999847E-004  1.578306223422447E-004 
 1.617290387140973E-004  1.657237459703363E-004  1.698171224958030E-004  1.740116054214502E-004 
 1.783096920753601E-004  1.827139414696219E-004  1.872269758239215E-004  1.918514821267711E-004 
 1.965902137353024E-004  2.014459920145653E-004  2.064217080173237E-004  2.115203242053530E-004 
 2.167448762132246E-004  2.220984746556914E-004  2.275843069796874E-004  2.332056393620855E-004 
 2.389658186543293E-004  2.448682743750815E-004  2.509165207521529E-004  2.571141588147342E-004 
 2.634648785374576E-004  2.699724610373414E-004  2.766407808249472E-004  2.834738081113406E-004 
 2.904756111716843E-004  2.976503587676095E-004  3.050023226291725E-004  3.125358799981285E-004 
 3.202555162340827E-004  3.281658274850589E-004  3.362715234239461E-004  3.445774300525095E-004 
 3.530884925748183E-004  3.618097783414097E-004  3.707464798664324E-004  3.799039179191365E-004 
 3.892875446917354E-004  3.989029470456154E-004  4.087558498376503E-004  4.188521193286459E-004 
 4.291977666760622E-004  4.397989515129639E-004  4.506619856153237E-004  4.617933366600193E-004 
 4.731996320755268E-004  4.848876629877959E-004  4.968643882636050E-004  5.091369386537108E-004 
 5.217126210384518E-004  5.345989227781032E-004  5.478035161707111E-004  5.613342630201416E-004 
 5.751992193167358E-004  5.894066400338638E-004  6.039649840426963E-004  6.188829191485610E-004 
 6.341693272515186E-004  6.498333096346232E-004  6.658841923826006E-004  6.823315319344575E-004 
 6.991851207732421E-004  7.164549932563480E-004  7.341514315897784E-004  7.522849719500281E-004 
 7.708664107571976E-004  7.899068111028987E-004  8.094175093371502E-004  8.294101218177776E-004 
 8.498965518266828E-004  8.708889966567910E-004  8.923999548742138E-004  9.144422337596039E-004 
 9.370289569334628E-004  9.601735721697390E-004  9.838898594023114E-004  1.008191938929547E-003 
 1.033094279821112E-003  1.058611708532693E-003  1.084759417733462E-003  1.111552975351480E-003 
 1.139008333842654E-003  1.167141839688559E-003  1.195970243128877E-003  1.225510708134161E-003 
 1.255780822625074E-003  1.286798608943914E-003  1.318582534584830E-003  1.351151523189074E-003 
 1.384524965811839E-003  1.418722732467386E-003  1.453765183959326E-003  1.489673184003123E-003 
 1.526468111647999E-003  1.564171874005720E-003  1.602806919293658E-003  1.642396250200214E-003 
 1.682963437580162E-003  1.724532634488384E-003  1.767128590560245E-003  1.810776666747090E-003 
 1.855502850415731E-003  1.901333770820997E-003  1.948296714960292E-003  1.996419643819799E-003 
 2.045731209022156E-003  2.096260769884999E-003  2.148038410901166E-003  2.201094959650413E-003 
 2.255462005153780E-003  2.311171916681086E-003  2.368257863023116E-003  2.426753832239781E-003 
 2.486694651895982E-003  2.548116009798032E-003  2.611054475239977E-003  2.675547520778420E-003 
 2.741633544541607E-003  2.809351893091876E-003  2.878742884851015E-003  2.949847834107063E-003 
 3.022709075609400E-003  3.097369989776996E-003  3.173875028524478E-003  3.252269741728929E-003 
 3.332600804349626E-003  3.414916044217077E-003  3.499264470509393E-003  3.585696302930895E-003 
 3.674263001613200E-003  3.765017297753178E-003  3.858013225007559E-003  3.953306151665404E-003 
 4.050952813611372E-003  4.151011348107611E-003  4.253541328405973E-003  4.358603799217640E-003 
 4.466261313058220E-003  4.576577967490759E-003  4.689619443287651E-003  4.805453043537071E-003 
 4.924147733712219E-003  5.045774182735116E-003  5.170404805048598E-003  5.298113803733346E-003 
 5.428977214685601E-003  5.563072951888217E-003  5.700480853799977E-003  5.841282730888762E-003 
 5.985562414341782E-003  6.133405805976030E-003  6.284900929383616E-003  6.440137982339312E-003 
 6.599209390502988E-003  6.762209862448444E-003  6.929236446051048E-003  7.100388586268378E-003 
 7.275768184349245E-003  7.455479658502772E-003  7.639630006067611E-003  7.828328867217601E-003 
 8.021688590237818E-003  8.219824298416606E-003  8.422853958587559E-003  8.630898451364825E-003 
 8.844081643113512E-003  9.062530459698338E-003  9.286374962052767E-003  9.515748423615715E-003 
 9.750787409678996E-003  9.991631858697995E-003  1.023842516560778E-002  1.049131426719828E-002 
 1.075044972959816E-002  1.101598583791923E-002  1.128808068811572E-002  1.156689628111218E-002 
 1.185259861925577E-002  1.214535780515139E-002  1.244534814293855E-002  1.275274824206921E-002 
 1.306774112364835E-002  1.339051432940238E-002  1.372126003333866E-002  1.406017515616217E-002 
 1.440746148251939E-002  1.476332578113752E-002  1.512797992793164E-002  1.550164103215140E-002 
 1.588453156564555E-002  1.627687949531714E-002  1.667891841885140E-002  1.709088770379699E-002 
 1.751303263008084E-002  1.794560453604374E-002  1.838886096808404E-002  1.884306583399588E-002 
 1.930848956009560E-002  1.978540925222982E-002  2.027410886075990E-002  2.077487934962069E-002 
 2.128801886955631E-002  2.181383293563446E-002  2.235263460914466E-002  2.290474468399041E-002 
 2.347049187768496E-002  2.405021302706375E-002  2.464425328883149E-002  2.525296634506750E-002 
 2.587671461378945E-002  2.651586946474933E-002  2.717081144052915E-002  2.784193048311096E-002 
 2.852962616604422E-002  2.923430793234470E-002  2.995639533827371E-002  3.069631830312957E-002 
 3.145451736521699E-002  3.223144394413616E-002  3.302756060955720E-002  3.384334135661442E-002 
 3.467927188812271E-002  3.553584990375763E-002  3.641358539637993E-002  3.731300095567254E-002 
 3.823463207927577E-002  3.917902749163525E-002  4.014674947067740E-002  4.113837418260512E-002 
 4.215449202491389E-002  4.319570797793061E-002  4.426264196498535E-002  4.535592922152048E-002 
 4.647622067329148E-002  4.762418332392247E-002  4.880050065202174E-002  5.000587301812789E-002 
 5.124101808167463E-002  5.250667122829141E-002  5.380358600763247E-002  5.513253458202006E-002 
 5.649430818619683E-002  5.788971759839494E-002  5.931959362307564E-002  6.078478758556618E-002 
 6.228617183892841E-002  6.382464028334950E-002  6.540110889834971E-002  6.701651628813703E-002 
 6.867182424045479E-002  7.036801829919342E-002  7.210610835118329E-002  7.388712922745909E-002 
 7.571214131937656E-002  7.758223120996449E-002  7.949851232085101E-002  8.146212557517683E-002 
 8.347424007688331E-002  8.553605380678250E-002  8.764879433580990E-002  8.981371955590343E-002 
 9.203211842893610E-002  9.430531175412900E-002  9.663465295445721E-002  9.902152888243167E-002 
 1.014673606458279E-001  1.039736044537792E-001  1.065417524837893E-001  1.091733337701383E-001 
 1.118699151142606E-001  1.146331020175829E-001  1.174645396374163E-001  1.203659137664603E-001 
 1.233389518364921E-001  1.263854239468540E-001  1.295071439183401E-001  1.327059703731236E-001 
 1.359838078413399E-001  1.393426078950206E-001  1.427843703100281E-001  1.463111442566871E-001 
 1.499250295198276E-001  1.536281777489672E-001  1.574227937393659E-001  1.613111367447276E-001 
 1.652955218223224E-001  1.693783212113334E-001  1.735619657452540E-001  1.778489462991624E-001 
 1.822418152727516E-001  1.867431881099884E-001  1.913557448563045E-001  1.960822317542562E-001 
 2.009254628785857E-001  2.058883218116874E-001  2.109737633604358E-001  2.161848153154367E-001 
 2.215245802537295E-001  2.269962373859960E-001  2.326030444494296E-001  2.383483396473319E-001 
 2.442355436366193E-001  2.502681615644434E-001  2.564497851550978E-001  2.627840948484223E-001 
 2.692748619911837E-001  2.759259510823527E-001  2.827413220740871E-001  2.897250327293219E-001 
 2.968812410377237E-001  3.042142076913770E-001  3.117282986213473E-001  3.194279875972937E-001 
 3.273178588909367E-001  3.354026100055508E-001  3.436870544726803E-001  3.521761247181492E-001 
 3.608748749987105E-001  3.697884844111614E-001  3.789222599761232E-001  3.882816397975343E-001 
 3.978721963005394E-001  4.076996395491658E-001  4.177698206460095E-001  4.280887352159771E-001 
 4.386625269758189E-001  4.494974913921107E-001  4.606000794294915E-001  4.719769013914010E-001 
 4.836347308557810E-001  4.955805087079132E-001  5.078213472730039E-001  5.203645345506375E-001 
 5.332175385540527E-001  5.463880117563146E-001  5.598837956466997E-001  5.737129253991761E-001 
 5.878836346565377E-001  6.024043604325612E-001  6.172837481352347E-001  6.325306567141828E-001 
 6.481541639350195E-001  6.641635717842149E-001  6.805684120072851E-001  6.973784517838637E-001 
 7.146036995429266E-001  7.322544109216353E-001  7.503410948714084E-001  7.688745199147354E-001 
 7.878657205566135E-001  8.073260038543634E-001  8.272669561495818E-001  8.477004499664788E-001 
 8.686386510806454E-001  8.900940257623325E-001  9.120793481986508E-001  9.346077080991632E-001 
 9.576925184892076E-001  9.813475236959077E-001  1.005586807531187E+000  1.030424801677203E+000 
 1.055876294278626E+000  1.081956438747308E+000  1.108680762784386E+000  1.136065177625159E+000 
 1.164125987512488E+000  1.192879899404045E+000  1.222344032919319E+000  1.252535930532428E+000 
 1.283473568016581E+000  1.315175365146606E+000  1.347660196665722E+000  1.380947403523371E+000 
 1.415056804390398E+000  1.450008707458820E+000  1.485823922533061E+000  1.522523773419633E+000 
 1.560130110623103E+000  1.598665324355478E+000  1.638152357867061E+000  1.678614721106384E+000 
 1.720076504717713E+000  1.762562394384235E+000  1.806097685525522E+000  1.850708298358015E+000 
 1.896420793327449E+000
    </PP_RAB>
  </PP_MESH>
  <PP_NLCC type="real" size="569" columns="4">