<UPF version="2.0.1">
  <PP_INFO>
    Generated using FHI98PP, converted with fhi2upf.x v.5.0.1
    Author: Abinit web site
    Generation date: 10-Jul-2012, PG
    Pseudopotential type: SL
    Element: Ra
    Functional: SLA-PW

    Suggested minimum cutoff for wavefunctions:   0. Ry
    Suggested minimum cutoff for charge density:   0. Ry
    The Pseudo was generated with a Non-Relativistic Calculation
    L component and cutoff radius for Local Potential:  0   0.0000

    Valence configuration: 
    nl pn  l   occ       Rcut    Rcut US       E pseu
    7s  7  0  2.00      0.000      0.000     0.000000
    7p  7  1  0.00      0.000      0.000     0.000000
    6d  6  2  0.00      0.000      0.000     0.000000
    5f  5  3  0.00      0.000      0.000     0.000000

    Generation configuration: not available.
    Comment:
    radium, fhi98PP : Trouiller-Martins-type, LDA Ceperley/Alder Perdew/Wang (1992),
  </PP_INFO>
  <!--                               -->
  <!-- END OF HUMAN READABLE SECTION -->
  <!--                               -->
  <PP_HEADER generated="Generated using FHI98PP, converted with fhi2upf.x v.5.0.1"
             author="Abinit web site"
             date="10-Jul-2012, PG"
             comment="radium, fhi98PP : Trouiller-Martins-type, LDA Ceperley/Alder Perdew/Wang (1992),"
             element="Ra"
             pseudo_type="SL"
             relativistic="no"
             is_ultrasoft="F"
             is_paw="F"
             is_coulomb="F"
             has_so="F"
             has_wfc="F"
             has_gipaw="F"
             paw_as_gipaw="F"
             core_correction="T"
             functional="SLA-PW"
             z_valence="2.000000000000000E+000"
             total_psenergy="0.000000000000000E+000"
             wfc_cutoff="0.000000000000000E+000"
             rho_cutoff="0.000000000000000E+000"
             l_max="3"
             l_max_rho="0"
             l_local="0"
             mesh_size="571"
             number_of_wfc="4"
             number_of_proj="3"/>
  <PP_MESH dx="2.439988682353512E-002" mesh="571" xmin="-5.075173815233831E+000" rmax="7.789991484181400E+001"
zmesh="8.800000000000000E+001">
    <PP_R type="real" size="571" columns="4">
 7.102272727272700E-005  7.277698863636400E-005  7.457458025568200E-005  7.641657238799699E-005 
 7.830406172598100E-005  8.023817205061200E-005  8.222005490026300E-005  8.425089025629901E-005 
 8.633188724563000E-005  8.846428486059700E-005  9.064935269665300E-005  9.288839170826100E-005 
 9.518273498345500E-005  9.753374853754600E-005  9.994283212642300E-005  1.024114200799500E-004 
 1.049409821559200E-004  1.075330244151700E-004  1.101890901182300E-004  1.129107606441500E-004 
 1.156996564320600E-004  1.185574379459300E-004  1.214858066631900E-004  1.244865060877700E-004 
 1.275613227881400E-004  1.307120874610100E-004  1.339406760213000E-004  1.372490107190200E-004 
 1.406390612837800E-004  1.441128460974900E-004  1.476724333961000E-004  1.513199425009800E-004 
 1.550575450807600E-004  1.588874664442500E-004  1.628119868654300E-004  1.668334429410000E-004 
 1.709542289816400E-004  1.751767984374900E-004  1.795036653589000E-004  1.839374058932600E-004 
 1.884806598188300E-004  1.931361321163500E-004  1.979065945796200E-004  2.027948874657400E-004 
 2.078039211861400E-004  2.129366780394400E-004  2.181962139870200E-004  2.235856604725000E-004 
 2.291082262861700E-004  2.347671994754300E-004  2.405659493024800E-004  2.465079282502500E-004 
 2.525966740780300E-004  2.588358119277600E-004  2.652290564823700E-004  2.717802141774900E-004 
 2.784931854676700E-004  2.853719671487200E-004  2.924206547373000E-004  2.996434449093100E-004 
 3.070446379985700E-004  3.146286405571300E-004  3.223999679788900E-004  3.303632471879700E-004 
 3.385232193935100E-004  3.468847429125300E-004  3.554527960624700E-004  3.642324801252200E-004 
 3.732290223843100E-004  3.824477792372000E-004  3.918942393843600E-004  4.015740270971600E-004 
 4.114929055664600E-004  4.216567803339500E-004  4.320717028081900E-004  4.427438738675600E-004 
 4.536796475520900E-004  4.648855348466200E-004  4.763682075573300E-004  4.881345022840000E-004 
 5.001914244904100E-004  5.125461526753300E-004  5.252060426464100E-004  5.381786318997700E-004 
 5.514716441077000E-004  5.650929937171600E-004  5.790507906619700E-004  5.933533451913200E-004 
 6.080091728175501E-004  6.230269993861400E-004  6.384157662709800E-004  6.541846356978700E-004 
 6.703429961996100E-004  6.869004682057400E-004  7.038669097704200E-004  7.212524224417500E-004 
 7.390673572760600E-004  7.573223210007800E-004  7.760281823295000E-004  7.951960784330400E-004 
 8.148374215703399E-004  8.349639058831200E-004  8.555875143584399E-004  8.767205259630900E-004 
 8.983755229543800E-004  9.205653983713500E-004  9.433033637111200E-004  9.666029567947900E-004 
 9.904780498276200E-004  1.014942857658400E-003  1.040011946242500E-003  1.065700241314700E-003 
 1.092023037275200E-003  1.118996006295900E-003  1.146635207651400E-003  1.174957097280400E-003 
 1.203978537583200E-003  1.233716807461500E-003  1.264189612605800E-003  1.295415096037200E-003 
 1.327411848909300E-003  1.360198921577400E-003  1.393795834940300E-003  1.428222592063300E-003 
 1.463499690087300E-003  1.499648132432500E-003  1.536689441303500E-003  1.574645670503700E-003 
 1.613539418565200E-003  1.653393842203700E-003  1.694232670106200E-003  1.736080217057800E-003 
 1.778961398419100E-003  1.822901744960100E-003  1.867927418060600E-003  1.914065225286700E-003 
 1.961342636351300E-003  2.009787799469100E-003  2.059429558116000E-003  2.110297468201500E-003 
 2.162421815666100E-003  2.215833634513000E-003  2.270564725285500E-003  2.326647674000100E-003 
 2.384115871547900E-003  2.443003533575100E-003  2.503345720854400E-003  2.565178360159500E-003 
 2.628538265655400E-003  2.693463160817100E-003  2.759991700889300E-003  2.828163495901300E-003 
 2.898019134250000E-003  2.969600206866000E-003  3.042949331975600E-003  3.118110180475400E-003 
 3.195127501933100E-003  3.274047151230900E-003  3.354916115866300E-003  3.437782543928200E-003 
 3.522695772763200E-003  3.609706358350500E-003  3.698866105401700E-003  3.790228098205100E-003 
 3.883846732230800E-003  3.979777746516900E-003  4.078078256855900E-003  4.178806789800200E-003 
 4.282023317508300E-003  4.387789293450700E-003  4.496167688999000E-003  4.607223030917200E-003 
 4.721021439780900E-003  4.837630669343500E-003  4.957120146876300E-003  5.079561014504100E-003 
 5.205026171562400E-003  5.333590318000000E-003  5.465329998854600E-003  5.600323649826300E-003 
 5.738651643977000E-003  5.880396339583200E-003  6.025642129170900E-003  6.174475489761400E-003 
 6.326985034358500E-003  6.483261564707200E-003  6.643398125355500E-003  6.807490059051700E-003 
 6.975635063510300E-003  7.147933249579000E-003  7.324487200843600E-003  7.505402034704400E-003 
 7.690785464961600E-003  7.880747865946201E-003  8.075402338235100E-003  8.274864775989500E-003 
 8.479253935956400E-003  8.688691508174501E-003  8.903302188426500E-003  9.123213752480600E-003 
 9.348557132166899E-003  9.579466493331400E-003  9.816079315716699E-003  1.005853647481500E-002 
 1.030698232574300E-002  1.056156478918900E-002  1.082243543948200E-002  1.108974959483700E-002 
 1.136366640982900E-002  1.164434897015200E-002  1.193196438971500E-002  1.222668391014100E-002 
 1.252868300272100E-002  1.283814147288800E-002  1.315524356726900E-002  1.348017808338000E-002 
 1.381313848204000E-002  1.415432300254600E-002  1.450393478070900E-002  1.486218196979300E-002 
 1.522927786444600E-002  1.560544102769800E-002  1.599089542108200E-002  1.638587053798300E-002 
 1.679060154027100E-002  1.720532939831600E-002  1.763030103445400E-002  1.806576947000500E-002 
 1.851199397591500E-002  1.896924022712000E-002  1.943778046073000E-002  1.991789363811000E-002 
 2.040986561097100E-002  2.091398929156200E-002  2.143056482706300E-002  2.195989977829200E-002 
 2.250230930281600E-002  2.305811634259500E-002  2.362765181625700E-002  2.421125481611900E-002 
 2.480927281007700E-002  2.542206184848600E-002  2.604998677614400E-002  2.669342144951400E-002 
 2.735274895931700E-002  2.802836185861200E-002  2.872066239652000E-002  2.943006275771400E-002 
 3.015698530783000E-002  3.090186284493300E-002  3.166513885720300E-002  3.244726778697600E-002 
 3.324871530131400E-002  3.406995856925700E-002  3.491148654591700E-002  3.577380026360200E-002 
 3.665741313011200E-002  3.756285123442600E-002  3.849065365991700E-002  3.944137280531600E-002 
 4.041557471360800E-002  4.141383940903400E-002  4.243676124243700E-002  4.348494924512500E-002 
 4.455902749148000E-002  4.565963547051900E-002  4.678742846664100E-002  4.794307794976700E-002 
 4.912727197512700E-002  5.034071559291200E-002  5.158413126805700E-002  5.285825931037800E-002 
 5.416385831534400E-002  5.550170561573300E-002  5.687259774444200E-002  5.827735090873000E-002 
 5.971680147617500E-002  6.119180647263700E-002  6.270324409251100E-002  6.425201422159600E-002 
 6.583903897286900E-002  6.746526323549901E-002  6.913165523741600E-002  7.083920712178000E-002 
 7.258893553768800E-002  7.438188224546900E-002  7.621911473693201E-002  7.810172687093400E-002 
 8.003083952464700E-002  8.200760126090501E-002  8.403318901204999E-002  8.610880878064700E-002 
 8.823569635752899E-002  9.041511805756000E-002  9.264837147358200E-002  9.493678624897900E-002 
 9.728172486932900E-002  9.968458347360200E-002  1.021467926854000E-001  1.046698184647300E-001 
 1.072551629808100E-001  1.099043655064300E-001  1.126190033344400E-001  1.154006927168000E-001 
 1.182510898269100E-001  1.211718917456300E-001  1.241648374717500E-001  1.272317089573000E-001 
 1.303743321685500E-001  1.335945781731100E-001  1.368943642539900E-001  1.402756550510600E-001 
 1.437404637308200E-001  1.472908531849700E-001  1.509289372586400E-001  1.546568820089300E-001 
 1.584769069945500E-001  1.623912865973200E-001  1.664023513762700E-001  1.705124894552600E-001 
 1.747241479448100E-001  1.790398343990500E-001  1.834621183087000E-001  1.879936326309300E-001 
 1.926370753569100E-001  1.973952111182300E-001  2.022708728328500E-001  2.072669633918200E-001 
 2.123864573876000E-001  2.176324028850700E-001  2.230079232363300E-001  2.285162189402700E-001 
 2.341605695480900E-001  2.399443356159300E-001  2.458709607056400E-001  2.519439734350700E-001 
 2.581669895789200E-001  2.645437142215200E-001  2.710779439627900E-001  2.777735691786700E-001 
 2.846345763373800E-001  2.916650503729200E-001  2.988691771171300E-001  3.062512457919200E-001 
 3.138156515629800E-001  3.215668981565900E-001  3.295096005410600E-001  3.376484876744200E-001 
 3.459884053199800E-001  3.545343189313800E-001  3.632913166089900E-001  3.722646121292300E-001 
 3.814595480488200E-001  3.908815988856300E-001  4.005363743781000E-001  4.104296228252400E-001 
 4.205672345090200E-001  4.309552452014000E-001  4.415998397578700E-001  4.525073557998900E-001 
 4.636842874881500E-001  4.751372893891000E-001  4.868731804370100E-001  4.988989479938100E-001 
 5.112217520092600E-001  5.238489292838800E-001  5.367879978372000E-001  5.500466613837800E-001 
 5.636328139199500E-001  5.775545444237800E-001  5.918201416710400E-001  6.064380991703200E-001 
 6.214171202198300E-001  6.367661230892599E-001  6.524942463295600E-001  6.686108542139000E-001 
 6.851255423129800E-001  7.020481432081100E-001  7.193887323453600E-001  7.371576340342900E-001 
 7.553654275949300E-001  7.740229536565300E-001  7.931413206118400E-001  8.127319112309600E-001 
 8.328063894383601E-001  8.533767072574900E-001  8.744551119267500E-001  8.960541531913400E-001 
 9.181866907751600E-001  9.408659020373100E-001  9.641052898176300E-001  9.879186904761300E-001 
 1.012320282130900E+000  1.037324593099500E+000  1.062946510549100E+000  1.089201289359600E+000 
 1.116104561206800E+000  1.143672343868600E+000  1.171921050762200E+000  1.200867500716000E+000 
 1.230528927983700E+000  1.260922992504900E+000  1.292067790419800E+000  1.323981864843100E+000 
 1.356684216904800E+000  1.390194317062300E+000  1.424532116693700E+000  1.459718059976100E+000 
 1.495773096057500E+000  1.532718691530100E+000  1.570576843210900E+000  1.609370091238200E+000 
 1.649121532491800E+000  1.689854834344300E+000  1.731594248752700E+000  1.774364626696800E+000 
 1.818191432976300E+000  1.863100761370800E+000  1.909119350176600E+000  1.956274598126000E+000 
 2.004594580699700E+000  2.054108066843000E+000  2.104844536094000E+000  2.156834196135500E+000 
 2.210108000780100E+000  2.264697668399300E+000  2.320635700808800E+000  2.377955402618800E+000 
 2.436690901063500E+000  2.496877166319700E+000  2.558550032327800E+000  2.621746218126300E+000 
 2.686503349714000E+000  2.752859982452000E+000  2.820855624018500E+000  2.890530757931800E+000 
 2.961926867652700E+000  3.035086461283700E+000  3.110053096877500E+000  3.186871408370300E+000 
 3.265587132157100E+000  3.346247134321400E+000  3.428899438539100E+000  3.513593254671000E+000 
 3.600379008061400E+000  3.689308369560500E+000  3.780434286288600E+000  3.873811013160000E+000 
 3.969494145185000E+000  4.067540650571100E+000  4.168008904640200E+000  4.270958724584800E+000 
 4.376451405082000E+000  4.484549754787600E+000  4.595318133730800E+000  4.708822491634000E+000 
 4.825130407177300E+000  4.944311128234600E+000  5.066435613102000E+000  5.191576572745600E+000 
 5.319808514092400E+000  5.451207784390500E+000  5.585852616665000E+000  5.723823176296600E+000 
 5.865201608751100E+000  6.010072088487300E+000  6.158520869072900E+000  6.310636334539000E+000 
 6.466509052002100E+000  6.626231825586600E+000  6.789899751678600E+000  6.957610275545000E+000 
 7.129463249351000E+000  7.305560991610000E+000  7.486008348102700E+000  7.670912754300900E+000 
 7.860384299332100E+000  8.054535791525600E+000  8.253482825576301E+000  8.457343851368000E+000 
 8.666240244496800E+000  8.880296378535901E+000  9.099639699085699E+000  9.324400799653100E+000 
 9.554713499404601E+000  9.790714922839800E+000  1.003254558143400E+001  1.028034945729500E+001 
 1.053427408889100E+001  1.079447065888600E+001  1.106109408416100E+001  1.133430310803900E+001 
 1.161426039480800E+001  1.190113262656000E+001  1.219509060243600E+001  1.249630934031600E+001 
 1.280496818102200E+001  1.312125089509300E+001  1.344534579220200E+001  1.377744583326900E+001 
 1.411774874535100E+001  1.446645713936100E+001  1.482377863070300E+001  1.518992596288200E+001 
 1.556511713416500E+001  1.594957552737900E+001  1.634353004290500E+001  1.674721523496500E+001 
 1.716087145126800E+001  1.758474497611500E+001  1.801908817702500E+001  1.846415965499700E+001 
 1.892022439847600E+001  1.938755394111800E+001  1.986642652346400E+001  2.035712725859300E+001 
 2.085994830188000E+001  2.137518902493700E+001  2.190315619385300E+001  2.244416415184100E+001 
 2.299853500639100E+001  2.356659882104900E+001  2.414869381192900E+001  2.474516654908400E+001 
 2.535637216284600E+001  2.598267455526900E+001  2.662444661678400E+001  2.728207044821800E+001 
 2.795593758828900E+001  2.864644924672000E+001  2.935401654311400E+001  3.007906075172900E+001 
 3.082201355229700E+001  3.158331728703800E+001  3.236342522402800E+001  3.316280182706200E+001 
 3.398192303219000E+001  3.482127653108500E+001  3.568136206140300E+001  3.656269170432000E+001 
 3.746579018941600E+001  3.839119520709500E+001  3.933945772871000E+001  4.031114233460900E+001 
 4.130682755027400E+001  4.232710619076600E+001  4.337258571367800E+001  4.444388858080600E+001 
 4.554165262875200E+001  4.666653144868200E+001  4.781919477546400E+001  4.900032888641800E+001 
 5.021063700991300E+001  5.145083974405800E+001  5.272167548573600E+001  5.402390087023300E+001 
 5.535829122172800E+001  5.672564101490500E+001  5.812676434797300E+001  5.956249542736800E+001 
 6.103368906442400E+001  6.254122118431500E+001  6.408598934756800E+001  6.566891328445300E+001 
 6.729093544257900E+001  6.895302154801000E+001  7.065616118024600E+001  7.240136836139800E+001 
 7.418968215992500E+001  7.602216730927501E+001  7.789991484181400E+001
    </PP_R>
    <PP_RAB type="real" size="571" columns="4">
 1.732946507353340E-006  1.775750286084983E-006  1.819611318151278E-006  1.864555717709606E-006 
 1.910610243937045E-006  1.957802316962272E-006  2.006160034191261E-006  2.055712187035774E-006 
 2.106488278055567E-006  2.158518538523538E-006  2.211833946425052E-006  2.266466244901767E-006 
 2.322447961150839E-006  2.379812425791256E-006  2.438593792708291E-006  2.498827059388292E-006 
 2.560548087755067E-006  2.623793625522587E-006  2.688601328073124E-006  2.755009780876523E-006 
 2.823058522464161E-006  2.892788067968980E-006  2.964239933247705E-006  3.037456659598904E-006 
 3.112481839091047E-006  3.189360140516669E-006  3.268137335987505E-006  3.348860328186247E-006 
 3.431577178292452E-006  3.516337134596291E-006  3.603190661820868E-006  3.692189471167754E-006 
 3.783386551105739E-006  3.876836198917934E-006  3.972594053031379E-006  4.070717126141104E-006 
 4.171263839156724E-006  4.274294055983980E-006  4.379869119166882E-006  4.488051886410186E-006 
 4.598906768004676E-006  4.712499765174267E-006  4.828898509373977E-006  4.948172302555598E-006 
 5.070392158428629E-006  5.195630844741872E-006  5.323962926607139E-006  5.455464810894350E-006 
 5.590214791723422E-006  5.728293097078786E-006  5.869781936576800E-006  6.014765550410217E-006 
 6.163330259505320E-006  6.315564516915166E-006  6.471558960482833E-006  6.631406466806891E-006 
 6.795202206536924E-006  6.963043701038351E-006  7.135030880454160E-006  7.311266143201345E-006 
 7.491854416938419E-006  7.676903221036684E-006  7.866522730596263E-006  8.060825842042025E-006 
 8.259928240340393E-006  8.463948467876809E-006  8.673007995033378E-006  8.887231292510873E-006 
 9.106745905435820E-006  9.331682529300025E-006  9.562175087773763E-006  9.798360812441929E-006 
 1.004038032450925E-005  1.028837771852459E-005  1.054250064817194E-005  1.080290041418197E-005 
 1.106973205441230E-005  1.134315443615612E-005  1.162333035072914E-005  1.191042661039225E-005 
 1.220461414766882E-005  1.250606811711640E-005  1.281496799960916E-005  1.313149770919936E-005 
 1.345584570261672E-005  1.378820509147135E-005  1.412877375723060E-005  1.447775446903418E-005 
 1.483535500441943E-005  1.520178827302850E-005  1.557727244337236E-005  1.596203107272358E-005 
 1.635629324021992E-005  1.676029368325334E-005  1.717427293722965E-005  1.759847747877924E-005 
 1.803315987250506E-005  1.847857892135597E-005  1.893499982071348E-005  1.940269431628513E-005 
 1.988194086589747E-005  2.037302480528496E-005  2.087623851797567E-005  2.139188160936958E-005 
 2.192026108512105E-005  2.246169153392347E-005  2.301649531481131E-005  2.358500274908729E-005 
 2.416755231698971E-005  2.476449085922028E-005  2.537617378344149E-005  2.600296527589275E-005 
 2.664523851820795E-005  2.730337590960775E-005  2.797776929457485E-005  2.866882019615111E-005 
 2.937694005499541E-005  3.010255047435367E-005  3.084608347107023E-005  3.160798173280656E-005 
 3.238869888160642E-005  3.318869974398309E-005  3.400846062765796E-005  3.484846960516049E-005 
 3.570922680440884E-005  3.659124470647881E-005  3.749504845072681E-005  3.842117614745986E-005 
 3.937017919830355E-005  4.034262262450017E-005  4.133908540332699E-005  4.236016081278861E-005 
 4.340645678486381E-005  4.447859626745112E-005  4.557721759525681E-005  4.670297486985974E-005 
 4.785653834914572E-005  4.903859484636774E-005  5.024984813907334E-005  5.149101938810930E-005 
 5.276284756699617E-005  5.406608990189968E-005  5.540152232247732E-005  5.676993992384368E-005 
 5.817215743996255E-005  5.960900972872882E-005  6.108135226902831E-005  6.259006167007320E-005 
 6.413603619332306E-005  6.572019628729843E-005  6.734348513559512E-005  6.900686921844516E-005 
 7.071133888813924E-005  7.245790895867688E-005  7.424761930995644E-005  7.608153550691243E-005 
 7.796074943393213E-005  7.988637994495155E-005  8.185957352959176E-005  8.388150499577274E-005 
 8.595337816916767E-005  8.807642660994732E-005  9.025191434721161E-005  9.248113663158720E-005 
 9.476542070638824E-005  9.710612659783600E-005  9.950464792480336E-005  1.019624127285450E-004 
 1.044808843229409E-004  1.070615621657162E-004  1.097059827512111E-004  1.124157205251641E-004 
 1.151923888221368E-004  1.180376408260438E-004  1.209531705544475E-004  1.239407138671413E-004 
 1.270020494996609E-004  1.301390001223027E-004  1.333534334253236E-004  1.366472632309289E-004 
 1.400224506327326E-004  1.434810051633603E-004  1.470249859908952E-004  1.506565031448698E-004 
 1.543777187725479E-004  1.581908484262309E-004  1.620981623823596E-004  1.661019869932019E-004 
 1.702047060719346E-004  1.744087623119112E-004  1.787166587410154E-004  1.831309602119176E-004 
 1.876542949291520E-004  1.922893560139032E-004  1.970389031074473E-004  2.019057640142011E-004 
 2.068928363853509E-004  2.120030894440685E-004  2.172395657533392E-004  2.226053830274458E-004 
 2.281037359882244E-004  2.337378982671330E-004  2.395112243543315E-004  2.454271515958859E-004 
 2.514892022403060E-004  2.577009855356451E-004  2.640661998783764E-004  2.705886350153673E-004 
 2.772721743002353E-004  2.841207970054565E-004  2.911385806914973E-004  2.983297036345782E-004 
 3.056984473143405E-004  3.132491989629997E-004  3.209864541774020E-004  3.289148195955706E-004 
 3.370390156395938E-004  3.453638793258822E-004  3.538943671452343E-004  3.626355580137335E-004 
 3.715926562966510E-004  3.807709949071828E-004  3.901760384813868E-004  3.998133866318837E-004 
 4.096887772816869E-004  4.198080900805520E-004  4.301773499055318E-004  4.408027304481980E-004 
 4.516905578902899E-004  4.628473146701777E-004  4.742796433425344E-004  4.859943505330943E-004 
 4.979984109912539E-004  5.102989717427383E-004  5.229033563447697E-004  5.358190692464987E-004 
 5.490538002568919E-004  5.626154291232236E-004  5.765120302225648E-004  5.907518773690733E-004 
 6.053434487400859E-004  6.202954319239685E-004  6.356167290925001E-004  6.513164623010664E-004 
 6.674039789199028E-004  6.838888571992212E-004  7.007809119720489E-004  7.180902004977575E-004 
 7.358270284500634E-004  7.540019560527703E-004  7.726258043672774E-004  7.917096617351513E-004 
 8.112648903800021E-004  8.313031331724014E-004  8.518363205617438E-004  8.728766776796398E-004 
 8.944367316183030E-004  9.165293188892809E-004  9.391675930658628E-004  9.623650326145663E-004 
 9.861354489201632E-004  1.010492994508488E-003  1.035452171472844E-003  1.061027840108219E-003 
 1.087235227758902E-003  1.114089937884533E-003  1.141607959350286E-003  1.169805675946237E-003 
 1.198699876142127E-003  1.228307763082823E-003  1.258646964830970E-003  1.289735544862295E-003 
 1.321592012820385E-003  1.354235335537049E-003  1.387684948324824E-003  1.421960766548454E-003 
 1.457083197482185E-003  1.493073152460007E-003  1.529952059325766E-003  1.567741875191112E-003 
 1.606465099508322E-003  1.646144787466181E-003  1.686804563716600E-003  1.728468636440395E-003 
 1.771161811760474E-003  1.814909508510960E-003  1.859737773371179E-003  1.905673296373442E-003 
 1.952743426793888E-003  2.000976189435678E-003  2.050400301314755E-003  2.101045188757214E-003 
 2.152941004919518E-003  2.206118647741030E-003  2.260609778340241E-003  2.316446839865233E-003 
 2.373663076809909E-003  2.432292554807128E-003  2.492370180910865E-003  2.553931724379379E-003 
 2.617013837971578E-003  2.681654079769329E-003  2.747890935539660E-003  2.815763841647474E-003 
 2.885313208536289E-003  2.956580444787022E-003  3.029607981773333E-003  3.104439298923080E-003 
 3.181118949606594E-003  3.259692587661799E-003  3.340206994577148E-003  3.422710107343116E-003 
 3.507251046994463E-003  3.593880147855196E-003  3.682648987507249E-003  3.773610417498717E-003 
 3.866818594810922E-003  3.962329014102864E-003  4.060198540751112E-003  4.160485444707570E-003 
 4.263249435191970E-003  4.368551696241290E-003  4.476454923138290E-003  4.587023359739931E-003 
 4.700322836725410E-003  4.816420810792634E-003  4.935386404819205E-003  5.057290449018205E-003 
 5.182205523109005E-003  5.310205999529707E-003  5.441368087718060E-003  5.575769879484761E-003 
 5.713491395507921E-003  5.854614632977020E-003  5.999223614411467E-003  6.147404437687447E-003 
 6.299245327298419E-003  6.454836686882706E-003  6.614271153048672E-003  6.777643650528952E-003 
 6.945051448696940E-003  7.116594219479918E-003  7.292374096701045E-003  7.472495736889484E-003 
 7.657066381590645E-003  7.846195921216041E-003  8.039996960470131E-003  8.238584885393642E-003 
 8.442077932062909E-003  8.650597256984777E-003  8.864267009232421E-003  9.083214404360412E-003 
 9.307569800148066E-003  9.537466774211825E-003  9.773042203534733E-003  1.001443634596206E-002 
 1.026179292370724E-002  1.051525920892299E-002  1.077498611138327E-002  1.104112826833445E-002 
 1.131384413656238E-002  1.159329608673530E-002  1.187965050007764E-002  1.217307786742970E-002 
 1.247375289075528E-002  1.278185458715673E-002  1.309756639545970E-002  1.342107628542758E-002 
 1.375257686967741E-002  1.409226551835862E-002  1.444034447666190E-002  1.479702098523558E-002 
 1.516250740357097E-002  1.553702133643918E-002  1.592078576344911E-002  1.631402917180630E-002 
 1.671698569234983E-002  1.712989523895086E-002  1.755300365135318E-002  1.798656284154160E-002 
 1.843083094372750E-002  1.888607246803770E-002  1.935255845799808E-002  1.983056665191082E-002 
 2.032038164821290E-002  2.082229507492382E-002  2.133660576327443E-002  2.186361992562730E-002 
 2.240365133779014E-002  2.295702152583365E-002  2.352405995752170E-002  2.410510423847260E-002 
 2.470050031316311E-002  2.531060267089742E-002  2.593577455686962E-002  2.657638818842277E-002 
 2.723282497667725E-002  2.790547575360098E-002  2.859474100471604E-002  2.930103110753188E-002 
 3.002476657588828E-002  3.076637831031278E-002  3.152630785457822E-002  3.230500765858461E-002 
 3.310294134775349E-002  3.392058399904182E-002  3.475842242381721E-002  3.561695545768709E-002 
 3.649669425749173E-002  3.739816260565128E-002  3.832189722201102E-002  3.926844808339448E-002 
 4.023837875105472E-002  4.123226670620461E-002  4.225070369385020E-002  4.329429607508607E-002 
 4.436366518814287E-002  4.545944771828964E-002  4.658229607692995E-002  4.773287879003105E-002 
 4.891188089614452E-002  5.012000435427971E-002  5.135796846182988E-002  5.262651028283655E-002 
 5.392638508682391E-002  5.525836679846679E-002  5.662324845838983E-002  5.802184269531262E-002 
 5.945498220988721E-002  6.092352027046975E-002  6.242833122115044E-002  6.397031100231294E-002 
 6.555037768406960E-002  6.716947201286769E-002  6.882855797158394E-002  7.052862335348312E-002 
 7.227068035031377E-002  7.405576615496599E-002  7.588494357899590E-002  7.775930168539530E-002 
 7.967995643702587E-002  8.164805136102089E-002  8.366475822963716E-002  8.573127775790881E-002 
 8.784884031852981E-002  9.001870667439708E-002  9.224216872925362E-002  9.452055029686793E-002 
 9.685520788919930E-002  9.924753152406326E-002  1.016989455527075E-001  1.042109095078590E-001 
 1.067849189727021E-001  1.094225064713296E-001  1.121252423811701E-001  1.148947358679863E-001 
 1.177326358439240E-001  1.206406319492695E-001  1.236204555584166E-001  1.266738808107090E-001 
 1.298027256667331E-001  1.330088529907018E-001  1.362941716595735E-001  1.396606376995644E-001 
 1.431102554507430E-001  1.466450787603775E-001  1.502672122057579E-001  1.539788123472401E-001 
 1.577820890122166E-001  1.616793066108196E-001  1.656727854841071E-001  1.697649032855630E-001 
 1.739580963967174E-001  1.782548613777170E-001  1.826577564537450E-001  1.871694030381540E-001 
 1.917924872931956E-001  1.965297617293375E-001  2.013840468440526E-001  2.063582328010998E-001 
 2.114552811512873E-001  2.166782265957248E-001  2.220301787926383E-001  2.275143242088160E-001 
 2.331339280167755E-001  2.388923360387875E-001  2.447929767389470E-001  2.508393632643887E-001 
 2.570350955370390E-001  2.633838623967890E-001  2.698894437980023E-001  2.765557130597940E-001 
 2.833866391723815E-001  2.903862891599453E-001  2.975588305021952E-001  3.049085336155952E-001 
 3.124397743959052E-001  3.201570368234781E-001  3.280649156330230E-001  3.361681190491492E-001 
 3.444714715896693E-001  3.529799169379300E-001  3.616985208862916E-001  3.706324743521985E-001 
 3.797870964686934E-001  3.891678377514731E-001  3.987802833439281E-001  4.086301563425291E-001 
 4.187233212041741E-001  4.290657872379338E-001  4.396637121827098E-001  4.505234058736101E-001 
 4.616513339987023E-001  4.730541219484615E-001  4.847385587605979E-001  4.967116011619710E-001 
 5.089803777106656E-001  5.215521930401329E-001  5.344345322082255E-001  5.476350651537646E-001 
 5.611616512630510E-001  5.750223440492518E-001  5.892253959472705E-001  6.037792632271768E-001 
 6.186926110288788E-001  6.339743185213094E-001  6.496334841887821E-001  6.656794312482313E-001 
 6.821217132000630E-001  6.989701195161109E-001  7.162346814681593E-001  7.339256781004249E-001 
 7.520536423495126E-001  7.706293673155274E-001  7.896639126882250E-001  8.091686113316364E-001 
 8.291550760315174E-001  8.496352064094935E-001  8.706211960078131E-001  8.921255395492145E-001 
 9.141610403760628E-001  9.367408180733621E-001  9.598783162797681E-001  9.835873106918750E-001 
 1.007881917265968E+000  1.032776600622443E+000  1.058286182657819E+000  1.084425851369471E+000 
 1.111211169898299E+000  1.138658085794783E+000  1.166782940513903E+000  1.195602479144598E+000 
 1.225133860379481E+000  1.255394666730858E+000  1.286402914999105E+000  1.318177066999566E+000 
 1.350736040554461E+000  1.384099220756164E+000  1.418286471508837E+000  1.453318147355107E+000 
 1.489215105594779E+000  1.525998718702963E+000  1.563690887054937E+000  1.602314051965195E+000 
 1.641891209048736E+000  1.682445921912223E+000  1.724002336183458E+000  1.766585193887188E+000 
 1.810219848176213E+000  1.854932278426162E+000  1.900749105703285E+000
    </PP_RAB>
  </PP_MESH>