<UPF version="2.0.1">
  <PP_INFO>
    Generated using FHI98PP, converted with fhi2upf.x v.5.0.1
    Author: Abinit web site
    Generation date: 10-Jul-2012, PG
    Pseudopotential type: SL
    Element: Rb
    Functional: SLA-PW

    Suggested minimum cutoff for wavefunctions:   0. Ry
    Suggested minimum cutoff for charge density:   0. Ry
    The Pseudo was generated with a Non-Relativistic Calculation
    L component and cutoff radius for Local Potential:  0   0.0000

    Valence configuration: 
    nl pn  l   occ       Rcut    Rcut US       E pseu
    5s  5  0  1.00      0.000      0.000     0.000000
    5p  5  1  0.00      0.000      0.000     0.000000
    4d  4  2  0.00      0.000      0.000     0.000000
    4f  4  3  0.00      0.000      0.000     0.000000

    Generation configuration: not available.
    Comment:
    rubidium, fhi98PP : Trouiller-Martins-type, LDA Ceperley/Alder Perdew/Wang (1992
  </PP_INFO>
  <!--                               -->
  <!-- END OF HUMAN READABLE SECTION -->
  <!--                               -->
  <PP_HEADER generated="Generated using FHI98PP, converted with fhi2upf.x v.5.0.1"
             author="Abinit web site"
             date="10-Jul-2012, PG"
             comment="rubidium, fhi98PP : Trouiller-Martins-type, LDA Ceperley/Alder Perdew/Wang (1992"
             element="Rb"
             pseudo_type="SL"
             relativistic="no"
             is_ultrasoft="F"
             is_paw="F"
             is_coulomb="F"
             has_so="F"
             has_wfc="F"
             has_gipaw="F"
             paw_as_gipaw="F"
             core_correction="T"
             functional="SLA-PW"
             z_valence="1.000000000000000E+000"
             total_psenergy="0.000000000000000E+000"
             wfc_cutoff="0.000000000000000E+000"
             rho_cutoff="0.000000000000000E+000"
             l_max="3"
             l_max_rho="0"
             l_local="0"
             mesh_size="535"
             number_of_wfc="4"
             number_of_proj="3"/>
  <PP_MESH dx="2.439988682353512E-002" mesh="535" xmin="-5.075173815233820E+000" rmax="7.697247080309400E+001"
zmesh="3.700000000000000E+001">
    <PP_R type="real" size="535" columns="4">
 1.689189189189200E-004  1.730912162162200E-004  1.773665692567600E-004  1.817475235174000E-004 
 1.862366873482800E-004  1.908367335257800E-004  1.955504008438700E-004  2.003804957447100E-004 
 2.053298939896100E-004  2.104015423711500E-004  2.155984604677200E-004  2.209237424412700E-004 
 2.263805588795700E-004  2.319721586838900E-004  2.377018710033900E-004  2.435731072171700E-004 
 2.495893629654300E-004  2.557542202306800E-004  2.620713494703800E-004  2.685445118023000E-004 
 2.751775612438100E-004  2.819744470065300E-004  2.889392158476000E-004  2.960760144790300E-004 
 3.033890920366600E-004  3.108828026099700E-004  3.185616078344300E-004  3.264300795479500E-004 
 3.344929025127800E-004  3.427548772048500E-004  3.512209226718100E-004  3.598960794618000E-004 
 3.687855126245100E-004  3.778945147863300E-004  3.872285093015500E-004  3.967930534813000E-004 
 4.065938419022900E-004  4.166367097972800E-004  4.269276365292700E-004  4.374727491515400E-004 
 4.482783260555800E-004  4.593508007091600E-004  4.706967654866700E-004  4.823229755941900E-004 
 4.942363530913699E-004  5.064439910127300E-004  5.189531575907400E-004  5.317713005832300E-004 
 5.449060517076400E-004  5.583652311848200E-004  5.721568523950800E-004  5.862891266492400E-004 
 6.007704680774800E-004  6.156094986389901E-004  6.308150532553700E-004  6.463961850707800E-004 
 6.623621708420300E-004  6.787225164618300E-004  6.954869626184400E-004  7.126654905951100E-004 
 7.302683282128100E-004  7.483059559196700E-004  7.667891130308800E-004  7.857288041227400E-004 
 8.051363055845800E-004  8.250231723325200E-004  8.454012446891300E-004  8.662826554329500E-004 
 8.876798370221400E-004  9.096055289965900E-004  9.320727855628100E-004  9.550949833662100E-004 
 9.786858294553501E-004  1.002859369442900E-003  1.027629995868100E-003  1.053012456766100E-003 
 1.079021864448200E-003  1.105673704500100E-003  1.132983845001200E-003  1.160968545972800E-003 
 1.189644469058300E-003  1.219028687444000E-003  1.249138696023900E-003  1.279992421815700E-003 
 1.311608234634500E-003  1.344004958030000E-003  1.377201880493300E-003  1.411218766941500E-003 
 1.446075870485000E-003  1.481793944486000E-003  1.518394254914800E-003  1.555898593011200E-003 
 1.594329288258500E-003  1.633709221678500E-003  1.674061839454000E-003  1.715411166888500E-003 
 1.757781822710600E-003  1.801199033731600E-003  1.845688649864800E-003  1.891277159516400E-003 
 1.937991705356500E-003  1.985860100478800E-003  2.034910844960600E-003  2.085173142831100E-003 
 2.136676919459100E-003  2.189452839369700E-003  2.243532324502100E-003  2.298947572917300E-003 
 2.355731577968400E-003  2.413918147944200E-003  2.473541926198400E-003  2.534638411775500E-003 
 2.597243980546400E-003  2.661395906865900E-003  2.727132385765500E-003  2.794492555693900E-003 
 2.863516521819500E-003  2.934245379908500E-003  3.006721240792200E-003  3.080987255439800E-003 
 3.157087640649100E-003  3.235067705373200E-003  3.314973877695900E-003  3.396853732475000E-003 
 3.480756019667100E-003  3.566730693352900E-003  3.654828941478700E-003  3.745103216333200E-003 
 3.837607265776700E-003  3.932396165241300E-003  4.029526350522800E-003  4.129055651380700E-003 
 4.231043325969800E-003  4.335550096121300E-003  4.442638183495500E-003  4.552371346627800E-003 
 4.664814918889500E-003  4.780035847386100E-003  4.898102732816500E-003  5.019085870317100E-003 
 5.143057291313900E-003  5.270090806409400E-003  5.400262049327700E-003  5.533648521946100E-003 
 5.670329640438100E-003  5.810386782557000E-003  5.953903336086100E-003  6.100964748487400E-003 
 6.251658577775100E-003  6.406074544646100E-003  6.564304585898900E-003  6.726442909170600E-003 
 6.892586049027100E-003  7.062832924438100E-003  7.237284897671700E-003  7.416045834644200E-003 
 7.599222166759900E-003  7.786922954278900E-003  7.979259951249500E-003  8.176347672045401E-003 
 8.378303459544901E-003  8.585247554995699E-003  8.797303169604099E-003  9.014596557893301E-003 
 9.237257092873300E-003  9.465417343067200E-003  9.699213151441000E-003  9.938783716281600E-003 
 1.018427167407400E-002  1.043582318442300E-002  1.069358801707900E-002  1.095771964110000E-002 
 1.122837531623600E-002  1.150571618654700E-002  1.178990737635400E-002  1.208111808855000E-002 
 1.237952170533700E-002  1.268529589145900E-002  1.299862269997800E-002  1.331968868066800E-002 
 1.364868499108000E-002  1.398580751036000E-002  1.433125695586600E-002  1.468523900267600E-002 
 1.504796440604200E-002  1.541964912687100E-002  1.580051446030500E-002  1.619078716747400E-002 
 1.659069961051100E-002  1.700048989089100E-002  1.742040199119600E-002  1.785068592037800E-002 
 1.829159786261100E-002  1.874340032981800E-002  1.920636231796400E-002  1.968075946721800E-002 
 2.016687422605800E-002  2.066499601944200E-002  2.117542142112200E-002  2.169845433022400E-002 
 2.223440615218100E-002  2.278359598413900E-002  2.334635080494800E-002  2.392300566983000E-002 
 2.451390390987500E-002  2.511939733644900E-002  2.573984645065900E-002  2.637562065799000E-002 
 2.702709848824300E-002  2.769466782090200E-002  2.837872611607800E-002  2.907968065114600E-002 
 2.979794876322900E-002  3.053395809768100E-002  3.128814686269300E-002  3.206096409020200E-002 
 3.285286990323000E-002  3.366433578984000E-002  3.449584488384900E-002  3.534789225248000E-002 
 3.622098519111600E-002  3.711564352533600E-002  3.803239992041200E-002  3.897180019844600E-002 
 3.993440366334800E-002  4.092078343383300E-002  4.193152678464800E-002  4.296723549622900E-002 
 4.402852621298600E-002  4.511603081044700E-002  4.623039677146500E-002  4.737228757172000E-002 
 4.854238307474200E-002  4.974137993668800E-002  5.096999202112400E-002  5.222895082404600E-002 
 5.351900590940000E-002  5.484092535536200E-002  5.619549621163900E-002  5.758352496806700E-002 
 5.900583803477800E-002  6.046328223423700E-002  6.195672530542300E-002  6.348705642046600E-002 
 6.505518671405200E-002  6.666204982588900E-002  6.830860245658900E-002  6.999582493726600E-002 
 7.172472181321700E-002  7.349632244200301E-002  7.531168160632100E-002  7.717188014199700E-002 
 7.907802558150399E-002  8.103125281336700E-002  8.303272475785700E-002  8.508363305937600E-002 
 8.718519879594300E-002  8.933867320620301E-002  9.154533843439600E-002  9.380650829372600E-002 
 9.612352904858100E-002  9.849778021608099E-002  1.009306753874200E-001  1.034236630694900E-001 
 1.059782275473000E-001  1.085958897677200E-001  1.112782082449800E-001  1.140267799886400E-001 
 1.168432414543500E-001  1.197292695182800E-001  1.226865824753800E-001  1.257169410625200E-001 
 1.288221495067600E-001  1.320040565995800E-001  1.352645567975900E-001  1.386055913504900E-001 
 1.420291494568500E-001  1.455372694484300E-001  1.491320400038100E-001  1.528156013919000E-001 
 1.565901467462800E-001  1.604579233709200E-001  1.644212340781800E-001  1.684824385599100E-001 
 1.726439547923400E-001  1.769082604757100E-001  1.812778945094600E-001  1.857554585038400E-001 
 1.903436183288900E-001  1.950451057016100E-001  1.998627198124400E-001  2.047993289918100E-001 
 2.098578724179100E-001  2.150413618666300E-001  2.203528835047400E-001  2.257955997273000E-001 
 2.313727510405700E-001  2.370876579912700E-001  2.429437231436500E-001  2.489444331053000E-001 
 2.550933606030000E-001  2.613941666099000E-001  2.678506025251600E-001  2.744665124075300E-001 
 2.812458352640000E-001  2.881926073950200E-001  2.953109647976800E-001  3.026051456281800E-001 
 3.100794927251900E-001  3.177384561955100E-001  3.255865960635400E-001  3.336285849863000E-001 
 3.418692110354700E-001  3.503133805480400E-001  3.589661210475800E-001  3.678325842374500E-001 
 3.769180490681200E-001  3.862279248801000E-001  3.957677546246400E-001  4.055432181638700E-001 
 4.155601356525200E-001  4.258244710031300E-001  4.363423354369100E-001  4.471199911222000E-001 
 4.581638549029200E-001  4.694805021190200E-001  4.810766705213600E-001  4.929592642832400E-001 
 5.051353581110400E-001  5.176122014563800E-001  5.303972228323500E-001  5.434980342363100E-001 
 5.569224356819500E-001  5.706784198432900E-001  5.847741768134200E-001  5.992180989807100E-001 
 6.140187860255401E-001  6.291850500403700E-001  6.447259207763600E-001  6.606506510195400E-001 
 6.769687220997200E-001  6.936898495355900E-001  7.108239888191200E-001  7.283813413429500E-001 
 7.463723604741200E-001  7.648077577778301E-001  7.836985093949400E-001  8.030558625770000E-001 
 8.228913423826500E-001  8.432167585395000E-001  8.640442124754200E-001  8.853861045235700E-001 
 9.072551413053001E-001  9.296643432955400E-001  9.526270525749400E-001  9.761569407735400E-001 
 1.000268017210600E+000  1.024974637235800E+000  1.050291510775500E+000  1.076233711091600E+000 
 1.102816683755600E+000  1.130056255844400E+000  1.157968645363700E+000  1.186570470904200E+000 
 1.215878761535500E+000  1.245910966945500E+000  1.276684967829000E+000  1.308219086534400E+000 
 1.340532097971800E+000  1.373643240791700E+000  1.407572228839200E+000  1.442339262891600E+000 
 1.477965042685000E+000  1.514470779239300E+000  1.551878207486500E+000  1.590209599211400E+000 
 1.629487776312000E+000  1.669736124386900E+000  1.710978606659200E+000  1.753239778243700E+000 
 1.796544800766300E+000  1.840919457345200E+000  1.886390167941700E+000  1.932984005089800E+000 
 1.980728710015600E+000  2.029652709152900E+000  2.079785131069000E+000  2.131155823806400E+000 
 2.183795372654400E+000  2.237735118359000E+000  2.293007175782500E+000  2.349644453024300E+000 
 2.407680671014000E+000  2.467150383588000E+000  2.528088998062700E+000  2.590532796314800E+000 
 2.654518956383800E+000  2.720085574606500E+000  2.787271688299300E+000  2.856117299000200E+000 
 2.926663396285500E+000  2.998951982173800E+000  3.073026096133500E+000  3.148929840708000E+000 
 3.226708407773500E+000  3.306408105445500E+000  3.388076385650000E+000  3.471761872375500E+000 
 3.557514390623200E+000  3.645384996071600E+000  3.735426005474600E+000  3.827691027809800E+000 
 3.922234996196700E+000  4.019114200602800E+000  4.118386321357600E+000  4.220110463495200E+000 
 4.324347191943500E+000  4.431158567584500E+000  4.540608184203900E+000  4.652761206353700E+000 
 4.767684408150600E+000  4.885446213031900E+000  5.006116734493800E+000  5.129767817835800E+000 
 5.256473082936400E+000  5.386307968084900E+000  5.519349774896600E+000  5.655677714336600E+000 
 5.795372953880700E+000  5.938518665841500E+000  6.085200076887800E+000  6.235504518786900E+000 
 6.389521480401000E+000  6.547342660966900E+000  6.709062024692800E+000  6.874775856702700E+000 
 7.044582820363200E+000  7.218584016026200E+000  7.396883041222000E+000  7.579586052340200E+000 
 7.766801827833000E+000  7.958641832980500E+000  8.155220286255100E+000  8.356654227325601E+000 
 8.563063586740601E+000  8.774571257332999E+000  8.991303167389200E+000  9.213388355623700E+000 
 9.440959048007601E+000  9.674150736493401E+000  9.913102259684800E+000  1.015795588549900E+001 
 1.040885739587100E+001  1.066595617354900E+001  1.092940529103500E+001  1.119936160172400E+001 
 1.147598583328700E+001  1.175944268336900E+001  1.204990091764800E+001  1.234753347031400E+001 
 1.265251754703100E+001  1.296503473044200E+001  1.328527108828400E+001  1.361341728416500E+001 
 1.394966869108400E+001  1.429422550775400E+001  1.464729287779500E+001  1.500908101187700E+001 
 1.537980531287000E+001  1.575968650409800E+001  1.614895076074900E+001  1.654782984454000E+001 
 1.695656124170000E+001  1.737538830437000E+001  1.780456039548800E+001  1.824433303725600E+001 
 1.869496806327600E+001  1.915673377443900E+001  1.962990509866800E+001  2.011476375460500E+001 
 2.061159841934400E+001  2.112070490030200E+001  2.164238631133900E+001  2.217695325322900E+001 
 2.272472399858400E+001  2.328602468134900E+001  2.386118949097800E+001  2.445056087140500E+001 
 2.505448972492900E+001  2.567333562113500E+001  2.630746701097700E+001  2.695726144614800E+001 
 2.762310580386800E+001  2.830539651722300E+001  2.900453981119900E+001  2.972095194453500E+001 
 3.045505945756500E+001  3.120729942616700E+001  3.197811972199300E+001  3.276797927912700E+001 
 3.357734836732100E+001  3.440670887199400E+001  3.525655458113200E+001  3.612739147928600E+001 
 3.701973804882500E+001  3.793412557863100E+001  3.887109848042300E+001  3.983121461288900E+001 
 4.081504561382700E+001  4.182317724048900E+001  4.285620971832900E+001  4.391475809837200E+001 
 4.499945262340200E+001  4.611093910320000E+001  4.724987929904900E+001  4.841695131773500E+001 
 4.961285001528300E+001  5.083828741066100E+001  5.209399310970400E+001  5.338071473951400E+001 
 5.469921839358000E+001  5.605028908790100E+001  5.743473122837200E+001  5.885336908971300E+001 
 6.030704730622900E+001  6.179663137469300E+001  6.332300816964800E+001  6.488708647143800E+001 
 6.648979750728300E+001  6.813209550571200E+001  6.981495826470299E+001  7.153938773384201E+001 
 7.330641061086800E+001  7.511707895295601E+001  7.697247080309400E+001
    </PP_R>
    <PP_RAB type="real" size="535" columns="4">
 4.121602503975554E-006  4.223406085823815E-006  4.327724216143648E-006  4.434619004282348E-006 
 4.544154093688127E-006  4.656394699802163E-006  4.771407648887355E-006  4.889261417814785E-006 
 5.010026174834948E-006  5.133773821353289E-006  5.260578034740779E-006  5.390514312198810E-006 
 5.523660015710137E-006  5.660094418098046E-006  5.799898750225261E-006  5.943156249355734E-006 
 6.089952208714720E-006  6.240374028270069E-006  6.394511266768393E-006  6.552455695057611E-006 
 6.714301350725368E-006  6.880144594088233E-006  7.050084165562425E-006  7.224221244451678E-006 
 7.402659509189585E-006  7.585505199066676E-006  7.772867177483472E-006  7.964856996767546E-006 
 8.161588964587599E-006  8.363180212013018E-006  8.569750763249744E-006  8.781423607101924E-006 
 8.998324770197427E-006  9.220583392021171E-006  9.448331801804036E-006  9.681705597308638E-006 
 9.920843725562208E-006  1.016588856558368E-005  1.041698601315353E-005  1.067428556767835E-005 
 1.093794042119993E-005  1.120810754960374E-005  1.148494780607880E-005  1.176862601688893E-005 
 1.205931107950617E-005  1.235717606317005E-005  1.266239831193024E-005  1.297515955023489E-005 
 1.329564599112579E-005  1.362404844710663E-005  1.396056244375004E-005  1.430538833611070E-005 
 1.465873142801273E-005  1.502080209428456E-005  1.539181590601331E-005  1.577199375889190E-005 
 1.616156200473656E-005  1.656075258625360E-005  1.696980317513414E-005  1.738895731355982E-005 
 1.781846455920476E-005  1.825858063381721E-005  1.870956757547235E-005  1.917169389458645E-005 
 1.964523473378294E-005  2.013047203170740E-005  2.062769469089049E-005  2.113719874975545E-005 
 2.165928755887432E-005  2.219427196157859E-005  2.274247047902968E-005  2.330420949986169E-005 
 2.387982347450814E-005  2.446965511432855E-005  2.507405559565150E-005  2.569338476886551E-005 
 2.632801137265593E-005  2.697831325356125E-005  2.764467759092294E-005  2.832750112742045E-005 
 2.902719040526705E-005  2.974416200827617E-005  3.047884280988140E-005  3.123167022728571E-005 
 3.200309248189849E-005  3.279356886620207E-005  3.360357001719626E-005  3.443357819662139E-005 
 3.528408757807904E-005  3.615560454125809E-005  3.704864797342705E-005  3.796374957837081E-005 
 3.890145419295470E-005  3.986232011152105E-005  4.084691941827662E-005  4.185583832790772E-005 
 4.288967753460592E-005  4.394905256971186E-005  4.503459416818446E-005  4.614694864413714E-005 
 4.728677827564842E-005  4.845476169905681E-005  4.965159431302287E-005  5.087798869255387E-005 
 5.213467501326171E-005  5.342240148608830E-005  5.474193480279391E-005  5.609406059242287E-005 
 5.747958388905676E-005  5.889932961111599E-005  6.035414305251003E-005  6.184489038590701E-005 
 6.337245917844001E-005  6.493775892014758E-005  6.654172156547553E-005  6.818530208814259E-005 
 6.986947904971874E-005  7.159525518224821E-005  7.336365798524877E-005  7.517574033748520E-005 
 7.703258112381956E-005  7.893528587757953E-005  8.088498743875532E-005  8.288284662849284E-005 
 8.493005294021584E-005  8.702782524783971E-005  8.917741253146094E-005  9.138009462098745E-005 
 9.363718295812754E-005  9.595002137719124E-005  9.831998690520883E-005  1.007484905817672E-004 
 1.032369782991367E-004  1.057869316631265E-004  1.083998688752059E-004  1.110773456364225E-004 
 1.138209560736420E-004  1.166323336886616E-004  1.195131523307707E-004  1.224651271933415E-004 
 1.254900158350163E-004  1.285896192261423E-004  1.317657828210277E-004  1.350203976567072E-004 
 1.383554014788262E-004  1.417727798953552E-004  1.452745675587690E-004  1.488628493774700E-004 
 1.525397617570950E-004  1.563074938724941E-004  1.601682889711457E-004  1.641244457087330E-004 
 1.681783195177383E-004  1.723323240098272E-004  1.765889324128694E-004  1.809506790434675E-004 
 1.854201608158409E-004  1.900000387879929E-004  1.946930397460542E-004  1.995019578277826E-004 
 2.044296561861283E-004  2.094790686939267E-004  2.146532016906668E-004  2.199551357724258E-004 
 2.253880276260056E-004  2.309551119083662E-004  2.366597031725038E-004  2.425051978408648E-004 
 2.484950762275402E-004  2.546329046103451E-004  2.609223373542390E-004  2.673671190868679E-004 
 2.739710869283337E-004  2.807381727754629E-004  2.876724056429995E-004  2.947779140623830E-004 
 3.020589285397193E-004  3.095197840746547E-004  3.171649227412977E-004  3.249988963330211E-004 
 3.330263690724345E-004  3.412521203885315E-004  3.496810477621309E-004  3.583181696418582E-004 
 3.671686284320097E-004  3.762376935542746E-004  3.855307645850722E-004  3.950533744703104E-004 
 4.048111928197366E-004  4.148100292823933E-004  4.250558370056683E-004  4.355547161796951E-004 
 4.463129176693253E-004  4.573368467357701E-004  4.686330668501313E-004  4.802083036013365E-004 
 4.920694487002826E-004  5.042235640831886E-004  5.166778861160381E-004  5.294398299031111E-004 
 5.425169937017293E-004  5.559171634461409E-004  5.696483173832792E-004  5.837186308226411E-004 
 5.981364810039650E-004  6.129104520847652E-004  6.280493402512518E-004  6.435621589554510E-004 
 6.594581442816664E-004  6.757467604454088E-004  6.924377054284037E-004  7.095409167525064E-004 
 7.270665773962859E-004  7.450251218579802E-004  7.634272423678547E-004  7.822838952543526E-004 
 8.016063074671351E-004  8.214059832615789E-004  8.416947110481386E-004  8.624845704110260E-004 
 8.837879393001721E-004  9.056175014008725E-004  9.279862536854789E-004  9.509075141515058E-004 
 9.743949297510576E-004  9.984624845159160E-004  1.023124507883443E-003  1.048395683228169E-003 
 1.074291056603908E-003  1.100826045702030E-003  1.128016449030869E-003  1.155878455321927E-003 
 1.184428653168392E-003  1.213684040901648E-003  1.243662036711914E-003  1.274380489018704E-003 
 1.305857687097467E-003  1.338112371968770E-003  1.371163747556388E-003  1.405031492121044E-003 
 1.439735769976427E-003  1.475297243494844E-003  1.511737085409176E-003  1.549076991418759E-003 
 1.587339193106815E-003  1.626546471176551E-003  1.666722169014625E-003  1.707890206589268E-003 
 1.750075094692035E-003  1.793301949530918E-003  1.837596507684344E-003  1.882985141424144E-003 
 1.929494874417313E-003  1.977153397815417E-003  2.025989086741454E-003  2.076031017183966E-003 
 2.127308983308420E-003  2.179853515196143E-003  2.233695897021482E-003  2.288868185677923E-003 
 2.345403229864167E-003  2.403334689641813E-003  2.462697056476010E-003  2.523525673770985E-003 
 2.585856757912972E-003  2.649727419833464E-003  2.715175687103285E-003  2.782240526574955E-003 
 2.850961867581127E-003  2.921380625710565E-003  2.993538727165580E-003  3.067479133726523E-003 
 3.143245868329465E-003  3.220884041277277E-003  3.300439877096834E-003  3.381960742061115E-003 
 3.465495172390095E-003  3.551092903148028E-003  3.638804897855876E-003  3.728683378832816E-003 
 3.820781858289988E-003  3.915155170189919E-003  4.011859502893567E-003  4.110952432615013E-003 
 4.212492957700610E-003  4.316541533755796E-003  4.423160109639563E-003  4.532412164347571E-003 
 4.644362744807081E-003  4.759078504603729E-003  4.876627743667447E-003  4.997080448936099E-003 
 5.120508336024877E-003  5.246984891924634E-003  5.376585418755275E-003  5.509387078598358E-003 
 5.645468939439876E-003  5.784912022243990E-003  5.927799349193311E-003  6.074215993118430E-003 
 6.224249128148432E-003  6.377988081613844E-003  6.535524387229595E-003  6.696951839594130E-003 
 6.862366550032203E-003  7.031867003817979E-003  7.205554118812356E-003  7.383531305546955E-003 
 7.565904528793817E-003  7.752782370655215E-003  7.944276095210421E-003  8.140499714761889E-003 
 8.341570057716713E-003  8.547606838142166E-003  8.758732727044360E-003  8.975073425402229E-003 
 9.196757739009786E-003  9.423917655163264E-003  9.656688421245833E-003  9.895208625250640E-003 
 1.013962027829439E-002  1.039006889916808E-002  1.064670360097760E-002  1.090967717992171E-002 
 1.117914620626581E-002  1.145527111756053E-002  1.173821631416428E-002  1.202815025712419E-002 
 1.232524556847526E-002  1.262967913401653E-002  1.294163220862668E-002  1.326129052417978E-002 
 1.358884440012710E-002  1.392448885681014E-002  1.426842373157336E-002  1.462085379774319E-002 
 1.498198888654761E-002  1.535204401204531E-002  1.573123949914266E-002  1.611980111477157E-002 
 1.651796020230637E-002  1.692595381930350E-002  1.734402487864032E-002  1.777242229314268E-002 
 1.821140112378329E-002  1.866122273154072E-002  1.912215493300971E-002  1.959447215985517E-002 
 2.007845562220355E-002  2.057439347607194E-002  2.108258099493078E-002  2.160332074550575E-002 
 2.213692276791969E-002  2.268370476028728E-002  2.324399226786638E-002  2.381811887688265E-002 
 2.440642641314052E-002  2.500926514554749E-002  2.562699399464192E-002  2.625998074630824E-002 
 2.690860227074296E-002  2.757324474683121E-002  2.825430389207656E-002  2.895218519821125E-002 
 2.966730417260625E-002  3.040008658567141E-002  3.115096872433618E-002  3.192039765182786E-002 
 3.270883147382802E-002  3.351673961123149E-002  3.434460307962756E-002  3.519291477569611E-002 
 3.606217977065525E-002  3.695291561098996E-002  3.786565262658115E-002  3.880093424645731E-002 
 3.975931732234671E-002  4.074137246020852E-002  4.174768435997430E-002  4.277885216366609E-002 
 4.383548981210818E-002  4.491822641046657E-002  4.602770660280689E-002  4.716459095589476E-002 
 4.832955635250735E-002  4.952329639441221E-002  5.074652181535475E-002  5.199996090419392E-002 
 5.328435993852706E-002  5.460048362900957E-002  5.594911557464690E-002  5.733105872934000E-002 
 5.874713587995470E-002  6.019819013618847E-002  6.168508543255418E-002  6.320870704273708E-002 
 6.476996210669328E-002  6.636978017072909E-002  6.800911374094658E-002  6.968893885034570E-002 
 7.141025563994911E-002  7.317408895425703E-002  7.498148895142735E-002  7.683353172852768E-002 
 7.873131996222262E-002  8.067598356528938E-002  8.266868035935193E-002  8.471059676422658E-002 
 8.680294850430359E-002  8.894698133236006E-002  9.114397177127012E-002  9.339522787401994E-002 
 9.570209000250818E-002  9.806593162557116E-002  1.004881601367206E-001  1.029702176920992E-001 
 1.055135820690933E-001  1.081197675461998E-001  1.107903258045925E-001  1.135268468519650E-001 
 1.163309599692077E-001  1.192043346804466E-001  1.221486817470539E-001  1.251657541862063E-001 
 1.282573483146069E-001  1.314253048179770E-001  1.346715098469811E-001  1.379978961402029E-001 
 1.414064441748655E-001  1.448991833459834E-001  1.484781931746295E-001  1.521456045460422E-001 
 1.559036009783310E-001  1.597544199224956E-001  1.637003540945817E-001  1.677437528407176E-001 
 1.718870235358819E-001  1.761326330172189E-001  1.804831090527431E-001  1.849410418463462E-001 
 1.895090855799509E-001  1.941899599937763E-001  1.989864520056221E-001  2.039014173701610E-001 
 2.089377823792054E-001  2.140985456039695E-001  2.193867796803893E-001  2.248056331384946E-001 
 2.303583322770154E-001  2.360481830842579E-001  2.418785732064394E-001  2.478529739646381E-001 
 2.539749424215689E-001  2.602481234993813E-001  2.666762521497999E-001  2.732631555779106E-001 
 2.800127555206952E-001  2.869290705820517E-001  2.940162186254232E-001  3.012784192254734E-001 
 3.087199961803486E-001  3.163453800859869E-001  3.241591109741129E-001  3.321658410151828E-001 
 3.403703372882609E-001  3.487774846192864E-001  3.573922884893700E-001  3.662198780150688E-001 
 3.752655090020321E-001  3.845345670743850E-001  3.940325708811170E-001  4.037651753818928E-001 
 4.137381752138222E-001  4.239575081416038E-001  4.344292585927029E-001  4.451596612799291E-001 
 4.561551049135380E-001  4.674221360049044E-001  4.789674627642342E-001  4.907979590945084E-001 
 5.029206686841490E-001  5.153428092006525E-001  5.280717765878973E-001  5.411151494696167E-001 
 5.544806936615221E-001  5.681763667949611E-001  5.822103230547888E-001  5.965909180342382E-001 
 6.113267137096912E-001  6.264264835383268E-001  6.418992176817225E-001  6.577541283584579E-001 
 6.740006553289154E-001  6.906484715155263E-001  7.077074887619743E-001  7.251878637343800E-001 
 7.431000039686189E-001  7.614545740666474E-001  7.802625020460856E-001  7.995349858466427E-001 
 8.192834999970442E-001  8.395198024469753E-001  8.602559415674095E-001  8.815042633241255E-001 
 9.032774186282468E-001  9.255883708683651E-001  9.484504036288093E-001  9.718771285984299E-001 
 9.958824936748024E-001  1.020480791268582E+000  1.045686666812913E+000  1.071515127483199E+000 
 1.097981551132039E+000  1.125101695445000E+000  1.152891707322490E+000  1.181368132493344E+000 
 1.210547925365928E+000  1.240448459122479E+000  1.271087536062796E+000  1.302483398203555E+000 
 1.334654738139182E+000  1.367620710171210E+000  1.401400941712435E+000  1.436015544972737E+000 
 1.471485128933566E+000  1.507830811618229E+000  1.545074232665201E+000  1.583237566212024E+000 
 1.622343534097473E+000  1.662415419389659E+000  1.703477080248581E+000  1.745552964130742E+000 
 1.788668122344773E+000  1.832848224966679E+000  1.878119576123355E+000
    </PP_RAB>
  </PP_MESH>
  <PP_NLCC type="real" size="535" columns="4">
 2.214086621101287E-002  2.214086621101207E-002  2.214086621101127E-002  2.214086621101048E-002 
 2.214086621100889E-002  2.214086621100810E-002  2.214086621100729E-002  2.214086621100570E-002 
 2.214086621100491E-002  2.214086621100332E-002  2.214086621100173E-002  2.214086621100013E-002 
 2.214086621099854E-002  2.214086621099695E-002  2.214086621099456E-002  2.214086621099297E-002 
 2.214086621099058E-002  2.214086621098820E-002  2.214086621098581E-002  2.214086621098263E-002 
 2.214086621097944E-002  2.214086621097626E-002  2.214086621097308E-002  2.214086621096910E-002 
 2.214086621096512E-002  2.214086621096114E-002  2.214086621095637E-002  2.214086621095159E-002 
 2.214086621094602E-002  2.214086621094045E-002  2.214086621093408E-002  2.214086621092692E-002 
 2.214086621091976E-002  2.214086621091260E-002  2.214086621090385E-002  2.214086621089509E-002 
 2.214086621088554E-002  2.214086621087519E-002  2.214086621086326E-002  2.214086621085132E-002 
 2.214086621083859E-002  2.214086621082427E-002  2.214086621080994E-002  2.214086621079324E-002 
 2.214086621077573E-002  2.214086621075742E-002  2.214086621073753E-002  2.214086621071525E-002 
 2.214086621069217E-002  2.214086621066750E-002  2.214086621064044E-002  2.214086621061100E-002 
 2.214086621057997E-002  2.214086621054654E-002  2.214086621050993E-002  2.214086621047174E-002 
 2.214086621042956E-002  2.214086621038421E-002  2.214086621033646E-002  2.214086621028393E-002 
 2.214086621022823E-002  2.214086621016775E-002  2.214086621010250E-002  2.214086621003247E-002 
 2.214086620995767E-002  2.214086620987650E-002  2.214086620978976E-002  2.214086620969586E-002 