<UPF version="2.0.1">
  <PP_INFO>
    Generated using FHI98PP, converted with fhi2upf.x v.5.0.1
    Author: Abinit web site
    Generation date: 10-Jul-2012, PG
    Pseudopotential type: SL
    Element: Re
    Functional: SLA-PW

    Suggested minimum cutoff for wavefunctions:   0. Ry
    Suggested minimum cutoff for charge density:   0. Ry
    The Pseudo was generated with a Non-Relativistic Calculation
    L component and cutoff radius for Local Potential:  1   0.0000

    Valence configuration: 
    nl pn  l   occ       Rcut    Rcut US       E pseu
    6s  6  0  2.00      0.000      0.000     0.000000
    6p  6  1  0.00      0.000      0.000     0.000000
    5d  5  2  5.00      0.000      0.000     0.000000
    5f  5  3  0.00      0.000      0.000     0.000000

    Generation configuration: not available.
    Comment:
    rhenium, fhi98PP : Trouiller-Martins-type, LDA Ceperley/Alder Perdew/Wang (1992)
  </PP_INFO>
  <!--                               -->
  <!-- END OF HUMAN READABLE SECTION -->
  <!--                               -->
  <PP_HEADER generated="Generated using FHI98PP, converted with fhi2upf.x v.5.0.1"
             author="Abinit web site"
             date="10-Jul-2012, PG"
             comment="rhenium, fhi98PP : Trouiller-Martins-type, LDA Ceperley/Alder Perdew/Wang (1992)"
             element="Re"
             pseudo_type="SL"
             relativistic="no"
             is_ultrasoft="F"
             is_paw="F"
             is_coulomb="F"
             has_so="F"
             has_wfc="F"
             has_gipaw="F"
             paw_as_gipaw="F"
             core_correction="F"
             functional="SLA-PW"
             z_valence="7.000000000000000E+000"
             total_psenergy="0.000000000000000E+000"
             wfc_cutoff="0.000000000000000E+000"
             rho_cutoff="0.000000000000000E+000"
             l_max="3"
             l_max_rho="0"
             l_local="1"
             mesh_size="565"
             number_of_wfc="4"
             number_of_proj="3"/>
  <PP_MESH dx="2.439988682353512E-002" mesh="565" xmin="-5.075173815233831E+000" rmax="7.895469758595900E+001"
zmesh="7.500000000000000E+001">
    <PP_R type="real" size="565" columns="4">
 8.333333333333301E-005  8.539166666666700E-005  8.750084083333300E-005  8.966211160191699E-005 
 9.187676575848401E-005  9.414612187271901E-005  9.647153108297501E-005  9.885437790072400E-005 
 1.012960810348700E-004  1.037980942364300E-004  1.063619071640700E-004  1.089890462710300E-004 
 1.116810757139200E-004  1.144395982840500E-004  1.172662563616700E-004  1.201627328938000E-004 
 1.231307523962800E-004  1.261720819804700E-004  1.292885324053900E-004  1.324819591558000E-004 
 1.357542635469500E-004  1.391073938565600E-004  1.425433464848100E-004  1.460641671429900E-004 
 1.496719520714200E-004  1.533688492875800E-004  1.571570598649900E-004  1.610388392436500E-004 
 1.650164985729700E-004  1.690924060877200E-004  1.732689885180900E-004  1.775487325344900E-004 
 1.819341862280900E-004  1.864279606279200E-004  1.910327312554300E-004  1.957512397174400E-004 
 2.005862953384600E-004  2.055407768333200E-004  2.106176340211100E-004  2.158198895814300E-004 
 2.211506408540900E-004  2.266130616831800E-004  2.322104043067600E-004  2.379460012931400E-004 
 2.438232675250800E-004  2.498457022329500E-004  2.560168910781000E-004  2.623405082877300E-004 
 2.688203188424400E-004  2.754601807178400E-004  2.822640471815700E-004  2.892359691469600E-004 
 2.963800975848900E-004  3.037006859952400E-004  3.112020929393200E-004  3.188887846349200E-004 
 3.267653376154000E-004  3.348364414545000E-004  3.431069015584300E-004  3.515816420269200E-004 
 3.602657085849900E-004  3.691642715870400E-004  3.782826290952300E-004  3.876262100338900E-004 
 3.972005774217200E-004  4.070114316840400E-004  4.170646140466400E-004  4.273661100135900E-004 
 4.379220529309200E-004  4.487387276383200E-004  4.598225742109800E-004  4.711801917940000E-004 
 4.828183425313100E-004  4.947439555918300E-004  5.069641312949500E-004  5.194861453379301E-004 
 5.323174531277800E-004  5.454656942200400E-004  5.589386968672700E-004  5.727444826798900E-004 
 5.868912714020900E-004  6.013874858057200E-004  6.162417567051200E-004  6.314629280957400E-004 
 6.470600624197000E-004  6.630424459614700E-004  6.794195943767201E-004  6.962012583578200E-004 
 7.133974294392600E-004  7.310183459464100E-004  7.490744990912800E-004  7.675766392188400E-004 
 7.865357822075400E-004  8.059632160280700E-004  8.258705074639600E-004  8.462695089983200E-004 
 8.671723658705800E-004  8.885915233075900E-004  9.105397339332800E-004  9.330300653614300E-004 
 9.560759079758600E-004  9.796909829028701E-004  1.003889350180600E-003  1.028685417130000E-003 
 1.054093946933100E-003  1.080130067422400E-003  1.106809280087700E-003  1.134147469305900E-003 
 1.162160911797700E-003  1.190866286319100E-003  1.220280683591200E-003  1.250421616475900E-003 
 1.281307030402900E-003  1.312955314053800E-003  1.345385310311000E-003  1.378616327475600E-003 
 1.412668150764300E-003  1.447561054088200E-003  1.483315812124200E-003  1.519953712683600E-003 
 1.557496569386900E-003  1.595966734650800E-003  1.635387112996600E-003  1.675781174687700E-003 
 1.717172969702400E-003  1.759587142054100E-003  1.803048944462800E-003  1.847584253391100E-003 
 1.893219584449800E-003  1.939982108185700E-003  1.987899666257900E-003  2.037000788014500E-003 
 2.087314707478400E-003  2.138871380753200E-003  2.191701503857800E-003  2.245836531003000E-003 
 2.301308693318800E-003  2.358151018043800E-003  2.416397348189500E-003  2.476082362689800E-003 
 2.537241597048200E-003  2.599911464495300E-003  2.664129277668300E-003  2.729933270826700E-003 
 2.797362622616100E-003  2.866457479394800E-003  2.937258979135800E-003  3.009809275920500E-003 
 3.084151565035700E-003  3.160330108692100E-003  3.238390262376800E-003  3.318378501857500E-003 
 3.400342450853400E-003  3.484330909389400E-003  3.570393882851400E-003  3.658582611757800E-003 
 3.748949602268200E-003  3.841548657444200E-003  3.936434909283100E-003  4.033664851542400E-003 
 4.133296373375500E-003  4.235388793797900E-003  4.340002897004700E-003  4.447200968560700E-003 
 4.557046832484100E-003  4.669605889246500E-003  4.784945154710900E-003  4.903133300032200E-003 
 5.024240692543000E-003  5.148339437648900E-003  5.275503421758800E-003  5.405808356276200E-003 
 5.539331822676200E-003  5.676153318696300E-003  5.816354305668100E-003  5.960018257018100E-003 
 6.107230707966500E-003  6.258079306453300E-003  6.412653865322700E-003  6.571046415796100E-003 
 6.733351262266300E-003  6.899665038444300E-003  7.070086764893800E-003  7.244717907986700E-003 
 7.423662440314000E-003  7.607026902589800E-003  7.794920467083700E-003  7.987455002620700E-003 
 8.184745141185400E-003  8.386908346172700E-003  8.594064982323200E-003  8.806338387386500E-003 
 9.023854945555000E-003  9.246744162710201E-003  9.475138743529100E-003  9.709174670494300E-003 
 9.948991284855499E-003  1.019473136959100E-002  1.044654123442000E-002  1.070457080291100E-002 
 1.096897370174200E-002  1.123990735217500E-002  1.151753306377400E-002  1.180201613044900E-002 
 1.209352592887200E-002  1.239223601931500E-002  1.269832424899200E-002  1.301197285794200E-002 
 1.333336858753300E-002  1.366270279164500E-002  1.400017155059900E-002  1.434597578789800E-002 
 1.470032138986000E-002  1.506341932818900E-002  1.543548578559500E-002  1.581674228450000E-002 
 1.620741581892700E-002  1.660773898965400E-002  1.701795014269900E-002  1.743829351122300E-002 
 1.786901936095000E-002  1.831038413916600E-002  1.876265062740300E-002  1.922608809790000E-002 
 1.970097247391800E-002  2.018758649402400E-002  2.068621988042700E-002  2.119716951147300E-002 
 2.172073959840600E-002  2.225724186648700E-002  2.280699574058900E-002  2.337032853538200E-002 
 2.394757565020600E-002  2.453908076876600E-002  2.514519606375400E-002  2.576628240652900E-002 
 2.640270958197000E-002  2.705485650864500E-002  2.772311146440900E-002  2.840787231758000E-002 
 2.910954676382400E-002  2.982855256889000E-002  3.056531781734200E-002  3.132028116743000E-002 
 3.209389211226600E-002  3.288661124743900E-002  3.369891054525000E-002  3.453127363571800E-002 
 3.538419609452000E-002  3.625818573805500E-002  3.715376292578500E-002  3.807146087005200E-002 
 3.901182595354200E-002  3.997541805459400E-002  4.096281088054300E-002  4.197459230929200E-002 
 4.301136473933200E-002  4.407374544839300E-002  4.516236696096900E-002  4.627787742490500E-002 
 4.742094099730000E-002  4.859223823993300E-002  4.979246652445900E-002  5.102234044761400E-002 
 5.228259225667000E-002  5.357397228540900E-002  5.489724940085900E-002  5.625321146106000E-002 
 5.764266578414800E-002  5.906643962901700E-002  6.052538068785300E-002  6.202035759084300E-002 
 6.355226042333700E-002  6.512200125579400E-002  6.673051468681200E-002  6.837875839957600E-002 
 7.006771373204600E-002  7.179838626122700E-002  7.357180640187901E-002  7.538903002000601E-002 
 7.725113906150000E-002  7.915924219631899E-002  8.111447547856800E-002  8.311800302288901E-002 
 8.517101769755400E-002  8.727474183468401E-002  8.943042795800001E-002  9.163935952856300E-002 
 9.390285170891800E-002  9.622225214612901E-002  9.859894177413800E-002  1.010343356359600E-001 
 1.035298837261700E-001  1.060870718542000E-001  1.087074225290000E-001  1.113924958654700E-001 
 1.141438905133500E-001  1.169632446090300E-001  1.198522367508700E-001  1.228125869986200E-001 
 1.258460578974800E-001  1.289544555275500E-001  1.321396305790800E-001  1.354034794543800E-001 
 1.387479453969100E-001  1.421750196482100E-001  1.456867426335200E-001  1.492852051765700E-001 
 1.529725497444300E-001  1.567509717231200E-001  1.606227207246800E-001  1.645901019265800E-001 
 1.686554774441600E-001  1.728212677370300E-001  1.770899530501400E-001  1.814640748904800E-001 
 1.859462375402700E-001  1.905391096075200E-001  1.952454256148200E-001  2.000679876275100E-001 
 2.050096669219100E-001  2.100734056948800E-001  2.152622188155400E-001  2.205791956202900E-001 
 2.260275017521100E-001  2.316103810453800E-001  2.373311574572100E-001  2.431932370464000E-001 
 2.492001100014400E-001  2.553553527184800E-001  2.616626299306300E-001  2.681256968899100E-001 
 2.747484016030900E-001  2.815346871226900E-001  2.884885938946200E-001  2.956142621638200E-001 
 3.029159344392600E-001  3.103979580199100E-001  3.180647875830100E-001  3.259209878363100E-001 
 3.339712362358600E-001  3.422203257708900E-001  3.506731678174300E-001  3.593347950625200E-001 
 3.682103645005600E-001  3.773051605037300E-001  3.866245979681700E-001  3.961742255379800E-001 
 4.059597289087700E-001  4.159869342128200E-001  4.262618114878800E-001  4.367904782316300E-001 
 4.475792030439500E-001  4.586344093591300E-001  4.699626792703000E-001  4.815707574482800E-001 
 4.934655551572500E-001  5.056541543696400E-001  5.181438119825700E-001  5.309419641385400E-001 
 5.440562306527600E-001  5.574944195498800E-001  5.712645317127600E-001  5.853747656460700E-001 
 5.998335223575300E-001  6.146494103597600E-001  6.298312507956400E-001  6.453880826902900E-001 
 6.613291683327500E-001  6.776639987905601E-001  6.944022995606900E-001  7.115540363598400E-001 
 7.291294210579300E-001  7.471389177580600E-001  7.655932490266800E-001  7.845034022776400E-001 
 8.038806363139001E-001  8.237364880308500E-001  8.440827792852100E-001  8.649316239335600E-001 
 8.862954350447200E-001  9.081869322903200E-001  9.306191495178900E-001  9.536054425109900E-001 
 9.771594969410100E-001  1.001295336515500E+000  1.026027331327400E+000  1.051370206411200E+000 
 1.077339050509500E+000  1.103949325057100E+000  1.131216873386000E+000  1.159157930158700E+000 
 1.187789131033600E+000  1.217127522570100E+000  1.247190572377600E+000  1.277996179515300E+000 
 1.309562685149300E+000  1.341908883472500E+000  1.375054032894300E+000  1.409017867506800E+000 
 1.443820608834200E+000  1.479482977872400E+000  1.516026207425900E+000  1.553472054749300E+000 
 1.591842814501600E+000  1.631161332019800E+000  1.671451016920700E+000  1.712735857038600E+000 
 1.755040432707500E+000  1.798389931395300E+000  1.842810162700800E+000  1.888327573719500E+000 
 1.934969264790400E+000  1.982763005630700E+000  2.031737251869800E+000  2.081921161991000E+000 
 2.133344614692100E+000  2.186038226675000E+000  2.240033370873900E+000  2.295362195134500E+000 
 2.352057641354300E+000  2.410153465095800E+000  2.469684255683600E+000  2.530685456799000E+000 
 2.593193387581900E+000  2.657245264255200E+000  2.722879222282300E+000  2.790134339072700E+000 
 2.859050657247800E+000  2.929669208481800E+000  3.002032037931300E+000  3.076182229268200E+000 
 3.152163930331100E+000  3.230022379410300E+000  3.309803932181800E+000  3.391556089306600E+000 
 3.475327524712500E+000  3.561168114572900E+000  3.649128967002900E+000  3.739262452487800E+000 
 3.831622235064300E+000  3.926263304270400E+000  4.023242007885900E+000  4.122616085480600E+000 
 4.224444702792000E+000  4.328788486951000E+000  4.435709562578700E+000  4.545271588774400E+000 
 4.657539797017100E+000  4.772581030003400E+000  4.890463781444500E+000  5.011258236846200E+000 
 5.135036315296300E+000  5.261871712284100E+000  5.391839943577500E+000  5.525018390183900E+000 
 5.661486344421400E+000  5.801325057128600E+000  5.944617786039700E+000  6.091449845354900E+000 
 6.241908656535100E+000  6.396083800351500E+000  6.554067070220200E+000  6.715952526854700E+000 
 6.881836554268000E+000  7.051817917158400E+000  7.225997819712200E+000  7.404479965859100E+000 
 7.587370621015800E+000  7.774778675354900E+000  7.966815708636200E+000  8.163596056639500E+000 
 8.365236879238500E+000  8.571858230155700E+000  8.783583128440499E+000  9.000537631713000E+000 
 9.222850911216300E+000  9.450655328723400E+000  9.684086515342800E+000  9.923283452271800E+000 
 1.016838855354300E+001  1.041954775081500E+001  1.067691058026100E+001  1.094063027159300E+001 
 1.121086383930100E+001  1.148777217613200E+001  1.177152014888300E+001  1.206227669656000E+001 
 1.236021493096500E+001  1.266551223976000E+001  1.297835039208200E+001  1.329891564676600E+001 
 1.362739886324100E+001  1.396399561516300E+001  1.430890630685800E+001  1.466233629263700E+001 
 1.502449599906600E+001  1.539560105024200E+001  1.577587239618300E+001  1.616553644436900E+001 
 1.656482519454500E+001  1.697397637685000E+001  1.739323359335900E+001  1.782284646311500E+001 
 1.826307077075300E+001  1.871416861879100E+001  1.917640858367500E+001  1.965006587569200E+001 
 2.013542250282200E+001  2.063276743864100E+001  2.114239679437600E+001  2.166461399519700E+001 
 2.219972996087800E+001  2.274806329091200E+001  2.330994045419700E+001  2.388569598341600E+001 
 2.447567267420600E+001  2.508022178925900E+001  2.569970326745400E+001  2.633448593816000E+001 
 2.698494774083300E+001  2.765147595003100E+001  2.833446740599700E+001  2.903432875092500E+001 
 2.975147667107300E+001  3.048633814484800E+001  3.123935069702600E+001  3.201096265924300E+001 
 3.280163343692600E+001  3.361183378281800E+001  3.444204607725400E+001  3.529276461536200E+001 
 3.616449590136100E+001  3.705775895012500E+001  3.797308559619300E+001  3.891102081041900E+001 
 3.987212302443600E+001  4.085696446314000E+001  4.186613148537900E+001  4.290022493306800E+001 
 4.395986048891500E+001  4.504566904299100E+001  4.615829706835300E+001  4.729840700594200E+001 
 4.846667765898800E+001  4.966380459716500E+001  5.089050057071500E+001  5.214749593481200E+001 
 5.343553908440200E+001  5.475539689978600E+001  5.610785520321100E+001  5.749371922673100E+001 
 5.891381409163100E+001  6.036898529969400E+001  6.186009923659600E+001  6.338804368774000E+001 
 6.495372836682800E+001  6.655808545748800E+001  6.820207016828800E+001  6.988666130144500E+001 
 7.161286183559100E+001  7.338169952293001E+001  7.519422750114600E+001  7.705152492042400E+001 
 7.895469758595900E+001
    </PP_R>
    <PP_RAB type="real" size="565" columns="4">
 2.033323901961252E-006  2.083547002339712E-006  2.135010613297486E-006  2.187745375445950E-006 
 2.241782686219457E-006  2.297154718569088E-006  2.353894440117741E-006  2.412035632788637E-006 
 2.471612912918470E-006  2.532661751867525E-006  2.595218497138657E-006  2.659320394018164E-006 
 2.725005607750305E-006  2.792313246261644E-006  2.861283383444403E-006  2.931957083015401E-006 
 3.004376422965958E-006  3.078584520613263E-006  3.154625558272469E-006  3.232544809561722E-006 
 3.312388666357940E-006  3.394204666416989E-006  3.478041521677316E-006  3.563949147262873E-006 
 3.651978691200221E-006  3.742182564872767E-006  3.834614474225290E-006  3.929329451738526E-006 
 4.026383889196513E-006  4.125835571259610E-006  4.227743709869802E-006  4.332168979503664E-006 
 4.439173553297358E-006  4.548821140063710E-006  4.661177022223293E-006  4.776308094672229E-006 
 4.894282904610615E-006  5.015171692354497E-006  5.139046433155824E-006  5.265980880054739E-006 
 5.396050607792058E-006  5.529333057804375E-006  5.665907584332276E-006  5.805855501665357E-006 
 5.949260132556478E-006  6.096206857830637E-006  6.246783167218959E-006  6.401078711449290E-006 
 6.559185355622162E-006  6.721197233905827E-006  6.887210805583286E-006  7.057324912481320E-006 
 7.231640837819610E-006  7.410262366513834E-006  7.593295846966666E-006  7.780850254386713E-006 
 7.973037255670005E-006  8.169971275885043E-006  8.371769566399497E-006  8.578552274689488E-006 
 8.790442515874442E-006  9.007566446016559E-006  9.230053337232925E-006  9.458035654662770E-006 
 9.691649135332768E-006  9.931032868975572E-006  1.017632938083937E-005  1.042768471654606E-005 
 1.068524852904460E-005  1.094917416771216E-005  1.121961876965449E-005  1.149674335326517E-005 
 1.178071291409078E-005  1.207169652306874E-005  1.236986742718858E-005  1.267540315264001E-005 
 1.298848561051029E-005  1.330930120508999E-005  1.363804094485559E-005  1.397490055619349E-005 
 1.432008059993163E-005  1.467378659074990E-005  1.503622911954139E-005  1.540762397879415E-005 
 1.578819229107025E-005  1.617816064065977E-005  1.657776120848411E-005  1.698723191033354E-005 
 1.740681653851883E-005  1.783676490702025E-005  1.827733300022349E-005  1.872878312532915E-005 
 1.919138406852465E-005  1.966541125501730E-005  2.015114691301614E-005  2.064888024176765E-005 
 2.115890758373934E-005  2.168153260105787E-005  2.221706645630381E-005  2.276582799777447E-005 
 2.332814394931956E-005  2.390434910486791E-005  2.449478652775886E-005  2.509980775499301E-005 
 2.571977300654107E-005  2.635505139980392E-005  2.700602116937826E-005  2.767306989226273E-005 
 2.835659471860026E-005  2.905700260814961E-005  2.977471057257135E-005  3.051014592371380E-005 
 3.126374652803063E-005  3.203596106727173E-005  3.282724930563508E-005  3.363808236348227E-005 
 3.446894299786157E-005  3.532032588990928E-005  3.619273793939056E-005  3.708669856649186E-005 
 3.800274002108458E-005  3.894140769960643E-005  3.990326046978488E-005  4.088887100339062E-005 
 4.189882611717227E-005  4.293372712226765E-005  4.399419018218678E-005  4.508084667968847E-005 
 4.619434359267531E-005  4.733534387941415E-005  4.850452687323600E-005  4.970258868700566E-005 
 5.093024262757327E-005  5.218821962047638E-005  5.347726864510204E-005  5.479815718063393E-005 
 5.615167166299622E-005  5.753861795307285E-005  5.895982181651419E-005  6.041612941538256E-005 
 6.190840781194158E-005  6.343754548489678E-005  6.500445285837290E-005  6.661006284397453E-005 
 6.825533139622023E-005  6.994123808170888E-005  7.166878666232583E-005  7.343900569288639E-005 
 7.525294913349980E-005  7.711169697709769E-005  7.901635589243212E-005  8.096805988297503E-005 
 8.296797096208499E-005  8.501727984484657E-005  8.711720665701627E-005  8.926900166144385E-005 
 9.147394600248109E-005  9.373335246874177E-005  9.604856627472038E-005  9.842096586170616E-005 
 1.008519637184904E-004  1.033430072223377E-004  1.058955795007292E-004  1.085112003143968E-004 
 1.111914269621613E-004  1.139378552081277E-004  1.167521202317687E-004  1.196358976014920E-004 
 1.225909042722489E-004  1.256188996077756E-004  1.287216864280870E-004  1.319011120828597E-004 
 1.351590695513058E-004  1.384974985692230E-004  1.419183867838829E-004  1.454237709374447E-004 
 1.490157380796009E-004  1.526964268101677E-004  1.564680285523789E-004  1.603327888576209E-004 
 1.642930087424051E-004  1.683510460583430E-004  1.725093168959823E-004  1.767702970233136E-004 
 1.811365233597901E-004  1.856105954867781E-004  1.901951771952998E-004  1.948929980720245E-004 
 1.997068551244028E-004  2.046396144459760E-004  2.096942129227924E-004  2.148736599819834E-004 
 2.201810393835397E-004  2.256195110563129E-004  2.311923129794028E-004  2.369027631099948E-004 
 2.427542613588115E-004  2.487502916143636E-004  2.548944238172409E-004  2.611903160855469E-004 
 2.676417168928379E-004  2.742524673000903E-004  2.810265032424093E-004  2.879678578724916E-004 
 2.950806639619642E-004  3.023691563618214E-004  3.098376745239564E-004  3.174906650846957E-004 
 3.253326845122835E-004  3.333684018197354E-004  3.416026013446918E-004  3.500401855978863E-004 
 3.586861781821765E-004  3.675457267832631E-004  3.766241062348031E-004  3.859267216588224E-004 
 3.954591116837916E-004  4.052269517423692E-004  4.152360574504189E-004  4.254923880694280E-004 
 4.360020500547379E-004  4.467713006911030E-004  4.578065518181634E-004  4.691143736480756E-004 
 4.807014986771799E-004  4.925748256945118E-004  5.047414238891811E-004  5.172085370592304E-004 
 5.299835879245842E-004  5.430741825463304E-004  5.564881148552191E-004  5.702333712921541E-004 
 5.843181355630718E-004  5.987507935114777E-004  6.135399381111984E-004  6.286943745825518E-004 
 6.442231256347343E-004  6.601354368379205E-004  6.764407821278286E-004  6.931488694463884E-004 
 7.102696465217087E-004  7.278133067907838E-004  7.457902954685264E-004  7.642113157665904E-004 
 7.830873352660370E-004  8.024295924471089E-004  8.222496033805343E-004  8.425591685840414E-004 
 8.633703800480615E-004  8.846956284352572E-004  9.065476104576090E-004  9.289393364359147E-004 
 9.518841380458749E-004  9.753956762555961E-004  9.994879494591223E-004  1.024175301810753E-003 
 1.049472431765490E-003  1.075394400830085E-003  1.101956642530605E-003  1.129174971601113E-003 
 1.157065593399657E-003  1.185645113556621E-003  1.214930547861461E-003  1.244939332393660E-003 
 1.275689333903782E-003  1.307198860451187E-003  1.339486672304341E-003  1.372571993110253E-003 
 1.406474521340072E-003  1.441214442017184E-003  1.476812438734992E-003  1.513289705971746E-003 
 1.550667961709253E-003  1.588969460363486E-003  1.628217006034461E-003  1.668433966083506E-003 
 1.709644285045780E-003  1.751872498886398E-003  1.795143749608884E-003  1.839483800224238E-003 
 1.884919050089773E-003  1.931476550626989E-003  1.979184021427474E-003  2.028069866756742E-003 
 2.078163192465625E-003  2.129493823319535E-003  2.182092320755511E-003  2.235990001078182E-003 
 2.291218954104801E-003  2.347812062271207E-003  2.405803020209296E-003  2.465226354808485E-003 
 2.526117445772298E-003  2.588512546682718E-003  2.652448806585812E-003  2.717964292108572E-003 
 2.785098010123724E-003  2.853889930973786E-003  2.924381012268765E-003  2.996613223271889E-003 
 3.070629569886560E-003  3.146474120262813E-003  3.224192031033292E-003  3.303829574199735E-003 
 3.385434164682634E-003  3.469054388550206E-003  3.554740031947377E-003  3.642542110736528E-003 
 3.732512900871688E-003  3.824705969523282E-003  3.919176206970481E-003  4.015979859282662E-003 
 4.115174561806784E-003  4.216819373483394E-003  4.320974812008565E-003  4.427702889865213E-003 
 4.537067151244766E-003  4.649132709880642E-003  4.763966287814553E-003  4.881636255123669E-003 
 5.002212670625236E-003  5.125767323589651E-003  5.252373776482229E-003  5.382107408761490E-003 
 5.515045461757870E-003  5.651267084663117E-003  5.790853381654517E-003  5.933887460181309E-003 
 6.080454480447638E-003  6.230641706114803E-003  6.384538556255925E-003  6.542236658595287E-003 
 6.703829904062571E-003  6.869414502693006E-003  7.039089040909513E-003  7.212954540220048E-003 
 7.391114517363329E-003  7.573675045942209E-003  7.760744819577183E-003  7.952435216620731E-003 
 8.148860366471096E-003  8.350137217523037E-003  8.556385606795830E-003  8.767728331283675E-003 
 8.984291221066278E-003  9.206203214226764E-003  9.433596433618114E-003  9.666606265528389E-003 
 9.905371440286987E-003  1.015003411486216E-002  1.040073995749934E-002  1.065763823444955E-002 
 1.092088189884043E-002  1.119062768174165E-002  1.146703618548066E-002  1.175027197926211E-002 
 1.204050369714983E-002  1.233790413846957E-002  1.264265037068977E-002  1.295492383484582E-002 
 1.327491045356646E-002  1.360280074176948E-002  1.393878992009114E-002  1.428307803111750E-002 
 1.463587005848615E-002  1.499737604893074E-002  1.536781123733918E-002  1.574739617490140E-002 
 1.613635686042171E-002  1.653492487487391E-002  1.694333751928337E-002  1.736183795600969E-002 
 1.779067535352318E-002  1.823010503475518E-002  1.868038862911353E-002  1.914179422825266E-002 
 1.961459654569056E-002  2.009907708036903E-002  2.059552428425410E-002  2.110423373407531E-002 
 2.162550830730699E-002  2.215965836249736E-002  2.270700192405103E-002  2.326786487157528E-002 
 2.384258113390316E-002  2.443149288791171E-002  2.503495076224233E-002  2.565331404607004E-002 
 2.628695090300659E-002  2.693623859031122E-002  2.760156368349166E-002  2.828332230647551E-002 
 2.898192036744497E-002  2.969777380052013E-002  3.043130881339343E-002  3.118296214108359E-002 
 3.195318130596768E-002  3.274242488422538E-002  3.355116277886646E-002  3.437987649950472E-002 
 3.522905944904205E-002  3.609921721743328E-002  3.699086788270514E-002  3.790454231940747E-002 
 3.884078451469665E-002  3.980015189220992E-002  4.078321564394777E-002  4.179056107035227E-002 
 4.282278792879111E-002  4.388051079063041E-002  4.496435940715986E-002  4.607497908451647E-002 
 4.721303106790472E-002  4.837919293528141E-002  4.957415900078339E-002  5.079864072810313E-002 
 5.205336715408538E-002  5.333908532279141E-002  5.465656073026504E-002  5.600657778030294E-002 
 5.738994025147588E-002  5.880747177568852E-002  6.026001632854642E-002  6.174843873186188E-002 
 6.327362516853802E-002  6.483648371020155E-002  6.643794485784345E-002  6.807896209583285E-002 
 6.976051245960002E-002  7.148359711735164E-002  7.324924196615022E-002  7.505849824271406E-002 
 7.691244314930848E-002  7.881218049509695E-002  8.075884135332743E-002  8.275358473475242E-002 
 8.479759827770146E-002  8.689209895516072E-002  8.903833379935439E-002  9.123758064419669E-002 
 9.349114888610960E-002  9.580038026359680E-002  9.816664965610815E-002  1.005913659026120E-001 
 1.030759726404073E-001  1.056219491646262E-001  1.082308113089928E-001  1.109041123483250E-001 
 1.136434439233280E-001  1.164504369882337E-001  1.193267627818434E-001  1.222741338225554E-001 
 1.252943049279725E-001  1.283890742596930E-001  1.315602843939070E-001  1.348098234184374E-001 
 1.381396260568717E-001  1.415516748204763E-001  1.450480011885426E-001  1.486306868179001E-001 
 1.523018647823006E-001  1.560637208424230E-001  1.599184947472313E-001  1.638684815674894E-001 
 1.679160330622061E-001  1.720635590788421E-001  1.763135289880892E-001  1.806684731540952E-001 
 1.851309844410009E-001  1.897037197566939E-001  1.943894016346850E-001  1.991908198550614E-001 
 2.041108331054815E-001  2.091523706831871E-001  2.143184342390607E-001  2.196120995647660E-001 
 2.250365184240155E-001  2.305949204290901E-001  2.362906149636869E-001  2.421269931532908E-001 
 2.481075298841792E-001  2.542357858723059E-001  2.605154097833731E-001  2.669501404050115E-001 
 2.735438088730068E-001  2.803003409521765E-001  2.872237593737085E-001  2.943181862302291E-001 
 3.015878454301150E-001  3.090370652122428E-001  3.166702807229835E-001  3.244920366568308E-001 
 3.325069899622516E-001  3.407199126143179E-001  3.491356944559031E-001  3.577593461089543E-001 
 3.665960019578666E-001  3.756509232062032E-001  3.849295010093970E-001  3.944372596843360E-001 
 4.041798599985412E-001  4.141631025404988E-001  4.243929311732687E-001  4.348754365732492E-001 
 4.456168598565856E-001  4.566235962950529E-001  4.679021991235374E-001  4.794593834418944E-001 
 4.913020302129191E-001  5.034371903591610E-001  5.158720889610462E-001  5.286141295583819E-001 
 5.416708985584650E-001  5.550501697528667E-001  5.687599089457497E-001  5.828082786967178E-001 
 5.972036431805176E-001  6.119545731670791E-001  6.270698511243133E-001  6.425584764470811E-001 
 6.584296708153350E-001  6.746928836844597E-001  6.913577979114716E-001  7.084343355198818E-001 
 7.259326636072266E-001  7.438632003983128E-001  7.622366214481574E-001  7.810638659979380E-001 
 8.003561434880797E-001  8.201249402322336E-001  8.403820262559794E-001  8.611394623044979E-001 
 8.824096070234082E-001  9.042051243168957E-001  9.265389908875209E-001  9.494245039624434E-001 
 9.728752892103073E-001  9.969053088538125E-001  1.021528869982488E+000  1.046760633071059E+000 
 1.072615620707919E+000  1.099109226539400E+000  1.126257224434926E+000  1.154075777878486E+000 
 1.182581449592065E+000  1.211791211396989E+000  1.241722454318495E+000  1.272392998940171E+000 
 1.303821106013996E+000  1.336025487332524E+000  1.369025316869645E+000  1.402840242196342E+000 
 1.437490396178585E+000  1.472996408964189E+000  1.509379420265594E+000  1.546661091946156E+000 
 1.584863620917246E+000  1.624009752353886E+000  1.664122793237028E+000  1.705226626229990E+000 
 1.747345723897878E+000  1.790505163278153E+000  1.834730640811115E+000  1.880048487639142E+000 
 1.926485685283841E+000
    </PP_RAB>
  </PP_MESH>
  <PP_LOCAL type="real" size="565" columns="4">
-6.895423077839600E+000 -6.895423172287600E+000 -6.895423264456000E+000 -6.895423354400000E+000 
-6.895423442172800E+000 -6.895423527826600E+000 -6.895423611412400E+000 -6.895423692980000E+000 