<UPF version="2.0.1">
  <PP_INFO>
    Generated using FHI98PP, converted with fhi2upf.x v.5.0.1
    Author: Abinit web site
    Generation date: 10-Jul-2012, PG
    Pseudopotential type: SL
    Element: Rf
    Functional: SLA-PW

    Suggested minimum cutoff for wavefunctions:   0. Ry
    Suggested minimum cutoff for charge density:   0. Ry
    The Pseudo was generated with a Non-Relativistic Calculation
    L component and cutoff radius for Local Potential:  0   0.0000

    Valence configuration: 
    nl pn  l   occ       Rcut    Rcut US       E pseu
    7s  7  0  2.00      0.000      0.000     0.000000
    7p  7  1  0.00      0.000      0.000     0.000000
    6d  6  2  2.00      0.000      0.000     0.000000
    5f  5  3 14.00      0.000      0.000     0.000000

    Generation configuration: not available.
    Comment:
    rutherfordium, fhi98PP : Trouiller-Martins-type, LDA Ceperley/Alder Perdew/Wang
  </PP_INFO>
  <!--                               -->
  <!-- END OF HUMAN READABLE SECTION -->
  <!--                               -->
  <PP_HEADER generated="Generated using FHI98PP, converted with fhi2upf.x v.5.0.1"
             author="Abinit web site"
             date="10-Jul-2012, PG"
             comment="rutherfordium, fhi98PP : Trouiller-Martins-type, LDA Ceperley/Alder Perdew/Wang"
             element="Rf"
             pseudo_type="SL"
             relativistic="no"
             is_ultrasoft="F"
             is_paw="F"
             is_coulomb="F"
             has_so="F"
             has_wfc="F"
             has_gipaw="F"
             paw_as_gipaw="F"
             core_correction="T"
             functional="SLA-PW"
             z_valence="1.800000000000000E+001"
             total_psenergy="0.000000000000000E+000"
             wfc_cutoff="0.000000000000000E+000"
             rho_cutoff="0.000000000000000E+000"
             l_max="3"
             l_max_rho="0"
             l_local="0"
             mesh_size="577"
             number_of_wfc="4"
             number_of_proj="3"/>
  <PP_MESH dx="2.439988682353512E-002" mesh="577" xmin="-5.075173815233824E+000" rmax="7.630741349192699E+001"
zmesh="1.040000000000000E+002">
    <PP_R type="real" size="577" columns="4">
 6.009615384615400E-005  6.158052884615401E-005  6.310156790865400E-005  6.466017663599800E-005 
 6.625728299890700E-005  6.789383788898000E-005  6.957081568483801E-005  7.128921483225299E-005 
 7.305005843861000E-005  7.485439488204300E-005  7.670329843563000E-005  7.859786990699000E-005 
 8.053923729369200E-005  8.252855645484700E-005  8.456701179928100E-005  8.665581699072400E-005 
 8.879621567039400E-005  9.098948219745301E-005  9.323692240773000E-005  9.553987439120100E-005 
 9.789970928866400E-005  1.003178321080900E-004  1.027956825611600E-004  1.053347359204200E-004 
 1.079365038976600E-004  1.106025355439300E-004  1.133344181718700E-004  1.161337783007100E-004 
 1.190022826247400E-004  1.219416390055700E-004  1.249535974890100E-004  1.280399513469900E-004 
 1.312025381452600E-004  1.344432408374400E-004  1.377639888861300E-004  1.411667594116200E-004 
 1.446535783690800E-004  1.482265217548000E-004  1.518877168421400E-004  1.556393434481400E-004 
 1.594836352313100E-004  1.634228810215300E-004  1.674594261827600E-004  1.715956740094700E-004 
 1.758340871575100E-004  1.801771891103000E-004  1.846275656813200E-004  1.891878665536500E-004 
 1.938608068575300E-004  1.986491687869100E-004  2.035558032559400E-004  2.085836315963600E-004 
 2.137356472967900E-004  2.190149177850300E-004  2.244245862543200E-004  2.299678735348000E-004 
 2.356480800111100E-004  2.414685875873800E-004  2.474328617007900E-004  2.535444533848000E-004 
 2.598070013834000E-004  2.662242343175700E-004  2.727999729052200E-004  2.795381322359800E-004 
 2.864427241022100E-004  2.935178593875300E-004  3.007677505144000E-004  3.081967139521100E-004 
 3.158091727867200E-004  3.236096593545600E-004  3.316028179406100E-004  3.397934075437500E-004 
 3.481863047100800E-004  3.567865064364200E-004  3.655991331454000E-004  3.746294317340900E-004 
 3.838827786979200E-004  3.933646833317600E-004  4.030807910100500E-004  4.130368865480000E-004 
 4.232388976457400E-004  4.336928984175900E-004  4.444051130085000E-004  4.553819192998100E-004 
 4.666298527065200E-004  4.781556100683700E-004  4.899660536370500E-004  5.020682151618900E-004 
 5.144693000763900E-004  5.271766917882799E-004  5.401979560754500E-004  5.535408455905100E-004 
 5.672133044765900E-004  5.812234730971700E-004  5.955796928826700E-004  6.102905112968700E-004 
 6.253646869258999E-004  6.408111946929700E-004  6.566392312018900E-004  6.728582202125700E-004 
 6.894778182518200E-004  7.065079203626400E-004  7.239586659955999E-004  7.418404450456900E-004 
 7.601639040383200E-004  7.789399524680700E-004  7.981797692940301E-004  8.178948095955900E-004 
 8.380968113926000E-004  8.587978026340000E-004  8.800101083590600E-004  9.017463580355300E-004 
 9.240194930790100E-004  9.468427745580600E-004  9.702297910896399E-004  9.941944669295600E-004 
 1.018751070262700E-003  1.043914221698200E-003  1.069698902974100E-003  1.096120465877600E-003 
 1.123194641384800E-003  1.150937549027000E-003  1.179365706488000E-003  1.208496039438200E-003 
 1.238345891612300E-003  1.268933035135200E-003  1.300275681103000E-003  1.332392490426200E-003 
 1.365302584939800E-003  1.399025558787800E-003  1.433581490089800E-003  1.468990952895100E-003 
 1.505275029431600E-003  1.542455322658500E-003  1.580553969128200E-003  1.619593652165700E-003 
 1.659597615374200E-003  1.700589676473900E-003  1.742594241482800E-003  1.785636319247400E-003 
 1.829741536332800E-003  1.874936152280300E-003  1.921247075241600E-003  1.968701878000000E-003 
 2.017328814386600E-003  2.067156836102000E-003  2.118215609953700E-003  2.170535535519600E-003 
 2.224147763246900E-003  2.279084212999100E-003  2.335377593060200E-003  2.393061419608800E-003 
 2.452170036673100E-003  2.512738636578900E-003  2.574803280902400E-003  2.638400921940700E-003 
 2.703569424712700E-003  2.770347589503100E-003  2.838775174963800E-003  2.908892921785400E-003 
 2.980742576953500E-003  3.054366918604200E-003  3.129809781493800E-003  3.207116083096700E-003 
 3.286331850349100E-003  3.367504247052800E-003  3.450681601955000E-003  3.535913437523300E-003 
 3.623250499430100E-003  3.712744786766000E-003  3.804449582999100E-003  3.898419487699200E-003 
 3.994710449045400E-003  4.093379797136800E-003  4.194486278126100E-003  4.298090089195800E-003 
 4.404252914398900E-003  4.513037961384600E-003  4.624509999030800E-003  4.738735396006800E-003 
 4.855782160288200E-003  4.975719979647300E-003  5.098620263144600E-003  5.224556183644300E-003 
 5.353602721380300E-003  5.485836708598400E-003  5.621336875300800E-003  5.760183896120700E-003 
 5.902460438354900E-003  6.048251211182200E-003  6.197643016098400E-003  6.350724798596100E-003 
 6.507587701121400E-003  6.668325117339100E-003  6.833032747737400E-003  7.001808656606500E-003 
 7.174753330424700E-003  7.351969737686100E-003  7.533563390207000E-003  7.719642405945100E-003 
 7.910317573371900E-003  8.105702417434199E-003  8.305913267144900E-003  8.511069324843299E-003 
 8.721292737167000E-003  8.936708667775000E-003  9.157445371868999E-003  9.383634272554200E-003 
 9.615410039086300E-003  9.852910667051700E-003  1.009627756052800E-002  1.034565561627300E-002 
 1.060119330999500E-002  1.086304278475200E-002  1.113135994153500E-002  1.140630453209100E-002 
 1.168804025403400E-002  1.197673484830800E-002  1.227256019906200E-002  1.257569243597800E-002 
 1.288631203914700E-002  1.320460394651400E-002  1.353075766399300E-002  1.386496737829300E-002 
 1.420743207253700E-002  1.455835564472900E-002  1.491794702915400E-002  1.528642032077400E-002 
 1.566399490269700E-002  1.605089557679400E-002  1.644735269754000E-002  1.685360230917000E-002 
 1.726988628620600E-002  1.769645247747500E-002  1.813355485366900E-002  1.858145365855500E-002 
 1.904041556392100E-002  1.951071382835000E-002  1.999262845991000E-002  2.048644638287000E-002 
 2.099246160852700E-002  2.151097541025700E-002  2.204229650289100E-002  2.258674122651200E-002 
 2.314463373480700E-002  2.371630618805700E-002  2.430209895090200E-002  2.490236079498900E-002 
 2.551744910662500E-002  2.614773009955900E-002  2.679357903301800E-002  2.745538043513300E-002 
 2.813352833188100E-002  2.882842648167900E-002  2.954048861577600E-002  3.027013868458600E-002 
 3.101781111009500E-002  3.178395104451500E-002  3.256901463531400E-002  3.337346929680600E-002 
 3.419779398843700E-002  3.504247949995200E-002  3.590802874360100E-002  3.679495705356800E-002 
 3.770379249279100E-002  3.863507616736300E-002  3.958936254869600E-002  4.056721980364900E-002 
 4.156923013279900E-002  4.259599011707900E-002  4.364811107297100E-002  4.472621941647400E-002 
 4.583095703606100E-002  4.696298167485100E-002  4.812296732222000E-002  4.931160461507900E-002 
 5.052960124907100E-002  5.177768239992300E-002  5.305659115520200E-002  5.436708895673500E-002 
 5.570995605396600E-002  5.708599196849900E-002  5.849601597012100E-002  5.994086756458300E-002 
 6.142140699342900E-002  6.293851574616600E-002  6.449309708509700E-002  6.608607658309799E-002 
 6.771840267470100E-002  6.939104722076600E-002  7.110500608711900E-002  7.286129973747101E-002 
 7.466097384098599E-002  7.650509989485900E-002  7.839477586226200E-002  8.033112682606000E-002 
 8.231530565866300E-002  8.434849370843200E-002  8.643190150303000E-002  8.856676947015500E-002 
 9.075436867606800E-002  9.299600158236700E-002  9.529300282145101E-002  9.764673999114100E-002 
 1.000586144689200E-001  1.025300622463000E-001  1.050625547837900E-001  1.076575998869500E-001 
 1.103167426041600E-001  1.130415661464800E-001  1.158336928303000E-001  1.186947850432000E-001 
 1.216265462337700E-001  1.246307219257500E-001  1.277091007573100E-001  1.308635155460200E-001 
 1.340958443800000E-001  1.374080117361900E-001  1.408019896260700E-001  1.442797987698400E-001 
 1.478435097994500E-001  1.514952444915000E-001  1.552371770304400E-001  1.590715353030900E-001 
 1.630006022250800E-001  1.670267171000400E-001  1.711522770124100E-001  1.753797382546100E-001 
 1.797116177895000E-001  1.841504947489000E-001  1.886990119692000E-001  1.933598775648400E-001 
 1.981358665406900E-001  2.030298224442500E-001  2.080446590586200E-001  2.131833621373700E-001 
 2.184489911821600E-001  2.238446812643600E-001  2.293736448915900E-001  2.350391739204100E-001 
 2.408446415162500E-001  2.467935041617000E-001  2.528893037144900E-001  2.591356695162400E-001 
 2.655363205532900E-001  2.720950676709600E-001  2.788158158424300E-001  2.857025664937400E-001 
 2.927594198861300E-001  2.999905775573200E-001  3.074003448229900E-001  3.149931333401200E-001 
 3.227734637336200E-001  3.307459682878400E-001  3.389153937045500E-001  3.472866039290500E-001 
 3.558645830461000E-001  3.646544382473300E-001  3.736614028720400E-001  3.828908395229800E-001 
 3.923482432592000E-001  4.020392448677000E-001  4.119696142159400E-001  4.221452636870700E-001 
 4.325722517001400E-001  4.432567863171300E-001  4.542052289391700E-001  4.654240980939600E-001 
 4.769200733168800E-001  4.886999991278100E-001  5.007708891062700E-001  5.131399300671901E-001 
 5.258144863398500E-001  5.388021041524500E-001  5.521105161250101E-001  5.657476458733000E-001 
 5.797216127263700E-001  5.940407365607100E-001  6.087135427537600E-001  6.237487672597800E-001 
 6.391553618111000E-001  6.549424992478300E-001  6.711195789792500E-001  6.876962325800400E-001 
 7.046823295247699E-001  7.220879830640300E-001  7.399235562457100E-001  7.581996680849800E-001 
 7.769271998866800E-001  7.961173017238800E-001  8.157813990764600E-001  8.359311996336500E-001 
 8.565787002646000E-001  8.777361941611300E-001  8.994162781569101E-001  9.216318602273900E-001 
 9.443961671750000E-001  9.677227525042300E-001  9.916255044910800E-001  1.016118654452000E+000 
 1.041216785217000E+000  1.066934839811800E+000  1.093288130355200E+000  1.120292347175000E+000 
 1.147963568150200E+000  1.176318268283500E+000  1.205373329510100E+000  1.235146050749000E+000 
 1.265654158202500E+000  1.296915815910100E+000  1.328949636563100E+000  1.361774692586200E+000 
 1.395410527493100E+000  1.429877167522100E+000  1.465195133559900E+000  1.501385453358900E+000 
 1.538469674056800E+000  1.576469875006000E+000  1.615408680918700E+000  1.655309275337400E+000 
 1.696195414438200E+000  1.738091441174800E+000  1.781022299771800E+000  1.825013550576200E+000 
 1.870091385275400E+000  1.916282642491700E+000  1.963614823761300E+000  2.012116109908200E+000 
 2.061815377822900E+000  2.112742217655200E+000  2.164926950431200E+000  2.218400646106900E+000 
 2.273195142065700E+000  2.329343062074800E+000  2.386877835708000E+000  2.445833718250000E+000 
 2.506245811090800E+000  2.568150082624700E+000  2.631583389665500E+000  2.696583499390300E+000 
 2.763189111825200E+000  2.831439882887300E+000  2.901376447994600E+000  2.973040446260100E+000 
 3.046474545282700E+000  3.121722466551200E+000  3.198829011475000E+000  3.277840088058400E+000 
 3.358802738233500E+000  3.441765165867800E+000  3.526776765464800E+000  3.613888151571800E+000 
 3.703151188915600E+000  3.794619023281800E+000  3.888346113156900E+000  3.984388262151800E+000 
 4.082802652227000E+000  4.183647877737000E+000  4.286983980317100E+000  4.392872484630900E+000 
 4.501376435001300E+000  4.612560432945800E+000  4.726490675639600E+000  4.843234995327900E+000 
 4.962862899712500E+000  5.085445613335400E+000  5.211056119984800E+000  5.339769206148400E+000 
 5.471661505540300E+000  5.606811544727100E+000  5.745299789881900E+000  5.887208694691900E+000 
 6.032622749450800E+000  6.181628531362300E+000  6.334314756086900E+000  6.490772330562300E+000 
 6.651094407127200E+000  6.815376438983200E+000  6.983716237026100E+000  7.156214028080600E+000 
 7.332972514574200E+000  7.514096935684200E+000  7.699695129995600E+000  7.889877599706500E+000 
 8.084757576419200E+000  8.284451088556800E+000  8.489077030444101E+000  8.698757233096099E+000 
 8.913616536753601E+000  9.133782865211399E+000  9.359387301982100E+000  9.590564168341100E+000 
 9.827451103299101E+000  1.007018914555100E+001  1.031892281744600E+001  1.057380021103700E+001 
 1.083497307624900E+001  1.110259691123300E+001  1.137683105494000E+001  1.165783878199700E+001 
 1.194578739991200E+001  1.224084834869000E+001  1.254319730290300E+001  1.285301427628500E+001 
 1.317048372890900E+001  1.349579467701300E+001  1.382914080553500E+001  1.417072058343200E+001 
 1.452073738184200E+001  1.487939959517400E+001  1.524692076517500E+001  1.562351970807500E+001 
 1.600942064486400E+001  1.640485333479200E+001  1.681005321216200E+001  1.722526152650200E+001 
 1.765072548620700E+001  1.808669840571600E+001  1.853343985633700E+001  1.899121582078900E+001 
 1.946029885156200E+001  1.994096823319600E+001  2.043351014855600E+001  2.093821784922500E+001 
 2.145539183010100E+001  2.198534000830400E+001  2.252837790650900E+001  2.308482884080000E+001 
 2.365502411316800E+001  2.423930320876300E+001  2.483801399802000E+001  2.545151294377100E+001 
 2.608016531348200E+001  2.672434539672500E+001  2.738443672802400E+001  2.806083231520600E+001 
 2.875393487339200E+001  2.946415706476400E+001  3.019192174426400E+001  3.093766221134700E+001 
 3.170182246796800E+001  3.248485748292600E+001  3.328723346275500E+001  3.410942812928500E+001 
 3.495193100407800E+001  3.581524369987900E+001  3.669988021926600E+001  3.760636726068200E+001 
 3.853524453202100E+001  3.948706507196100E+001  4.046239557923900E+001  4.146181675004600E+001 
 4.248592362377200E+001  4.353532593727900E+001  4.461064848793000E+001  4.571253150558200E+001 
 4.684163103377000E+001  4.799861932030400E+001  4.918418521751600E+001  5.039903459238800E+001 
 5.164389074682000E+001  5.291949484826700E+001  5.422660637101900E+001  5.556600354838300E+001 
 5.693848383602800E+001  5.834486438677800E+001  5.978598253713100E+001  6.126269630579900E+001 
 6.277588490455200E+001  6.432644926169399E+001  6.591531255845800E+001  6.754342077865201E+001 
 6.921174327188500E+001  7.092127333070000E+001  7.267302878196800E+001  7.446805259288300E+001 
 7.630741349192699E+001
    </PP_R>
    <PP_RAB type="real" size="577" columns="4">
 1.466339352375912E-006  1.502557934379597E-006  1.539671115358773E-006  1.577700991908141E-006 
 1.616670206408268E-006  1.656601960506553E-006  1.697520028931069E-006  1.739448773645654E-006 
 1.782413158354711E-006  1.826438763366056E-006  1.871551800821210E-006  1.917779130301493E-006 
 1.965148274819924E-006  2.013687437207996E-006  2.063425516907015E-006  2.114392127174637E-006 
 2.166617612715829E-006  2.220133067749917E-006  2.274970354523338E-006  2.331162122280066E-006 
 2.388741826700392E-006  2.447743749819794E-006  2.508203020440347E-006  2.570155635045208E-006 
 2.633638479230961E-006  2.698689349667912E-006  2.765346976604830E-006  2.833651046926843E-006 
 2.903642227785996E-006  2.975362190812284E-006  3.048853636925406E-006  3.124160321757499E-006 
 3.201327081704894E-006  3.280399860622811E-006  3.361425737180322E-006  3.444452952888740E-006 
 3.529530940824920E-006  3.616710355063387E-006  3.706043100833365E-006  3.797582365423928E-006 
 3.891382649849922E-006  3.987499801301378E-006  4.085991046393478E-006  4.186915025239296E-006 
 4.290331826362855E-006  4.396303022474005E-006  4.504891707129004E-006  4.616162532295125E-006 
 4.730181746842933E-006  4.847017235989929E-006  4.966738561718717E-006  5.089417004193128E-006 
 5.215125604196697E-006  5.343939206620582E-006  5.475934505024104E-006  5.611190087298157E-006 
 5.749786482454433E-006  5.891806208570950E-006  6.037333821922694E-006  6.186455967324196E-006 
 6.339261429716992E-006  6.495841187031002E-006  6.656288464350815E-006  6.820698789420307E-006 
 6.989170049519019E-006  7.161802549742028E-006  7.338699072720607E-006  7.519964939816912E-006 
 7.705708073830216E-006  7.896039063254017E-006  8.091071228116205E-006  8.290920687450846E-006 
 8.495706428430866E-006  8.705550377213133E-006  8.920577471530309E-006  9.140915735077072E-006 
 9.366696353733427E-006  9.598053753670676E-006  9.835125681386232E-006  1.007805328571652E-005 
 1.032698120187382E-005  1.058205763756011E-005  1.084343446120774E-005  1.111126729239957E-005 
 1.138571559452195E-005  1.166694276970662E-005  1.195511625611816E-005  1.225040762764440E-005 
 1.255299269604724E-005  1.286305161563969E-005  1.318076899054598E-005  1.350633398461237E-005 
 1.383994043403216E-005  1.418178696275296E-005  1.453207710073295E-005  1.489101940512101E-005 
 1.525882758442743E-005  1.563572062576280E-005  1.602192292521923E-005  1.641766442147198E-005 
 1.682318073268233E-005  1.723871329677958E-005  1.766450951521010E-005  1.810082290023576E-005 
 1.854791322587162E-005  1.900604668255074E-005  1.947549603560971E-005  1.995654078768920E-005 
 2.044946734514510E-005  2.095456918857025E-005  2.147214704752794E-005  2.200250907960191E-005 
 2.254597105386814E-005  2.310285653889864E-005  2.367349709540934E-005  2.425823247366609E-005 
 2.485741081576516E-005  2.547138886291483E-005  2.610053216782772E-005  2.674521531237403E-005 
 2.740582213059024E-005  2.808274593721570E-005  2.877638976186574E-005  2.948716658898251E-005 
 3.021549960372981E-005  3.096182244394380E-005  3.172657945830824E-005  3.251022597092738E-005 
 3.331322855241106E-005  3.413606529765530E-005  3.497922611050596E-005  3.584321299543745E-005 
 3.672854035642454E-005  3.763573530322675E-005  3.856533796521730E-005  3.951790181295899E-005 
 4.049399398773925E-005  4.149419563923537E-005  4.251910227152435E-005  4.356932409763039E-005 
 4.464548640284159E-005  4.574822991699373E-005  4.687821119594290E-005  4.803610301248105E-005 
 4.922259475688932E-005  5.043839284738573E-005  5.168422115071570E-005  5.296082141313943E-005 
 5.426895370204314E-005  5.560939685848365E-005  5.698294896088874E-005  5.839042780022302E-005 
 5.983267136688761E-005  6.131053834964910E-005  6.282490864688547E-005  6.437668389046380E-005 
 6.596678798255984E-005  6.759616764572897E-005  6.926579298657783E-005  7.097665807334616E-005 
 7.272978152775782E-005  7.452620713149219E-005  7.636700444764192E-005  7.825326945749874E-005 
 8.018612521309680E-005  8.216672250586217E-005  8.419624055175686E-005  8.627588769338555E-005 
 8.840690211941154E-005  9.059055260176044E-005  9.282813925102343E-005  9.512099429052425E-005 
 9.747048284950093E-005  9.987800377588308E-005  1.023449904691479E-004  1.048729117337355E-004 
 1.074632726535579E-004  1.101176154881019E-004  1.128375205906580E-004  1.156246073492458E-004 
 1.184805351507729E-004  1.214070043689966E-004  1.244057573769111E-004  1.274785795841215E-004 
 1.306273004998490E-004  1.338537948221954E-004  1.371599835543041E-004  1.405478351480946E-004 
 1.440193666762531E-004  1.475766450331549E-004  1.512217881654738E-004  1.549569663331627E-004 
 1.587844034015913E-004  1.627063781656106E-004  1.667252257063018E-004  1.708433387812471E-004 
 1.750631692491444E-004  1.793872295295960E-004  1.838180940989783E-004  1.883584010232228E-004 
 1.930108535284954E-004  1.977782216106495E-004  2.026633436844344E-004  2.076691282734380E-004 
 2.127985557417936E-004  2.180546800686153E-004  2.234406306663091E-004  2.289596142437678E-004 
 2.346149167155891E-004  2.404099051584634E-004  2.463480298158805E-004  2.524328261523317E-004 
 2.586679169582957E-004  2.650570145071686E-004  2.716039227654865E-004  2.783125396577961E-004 
 2.851868593873523E-004  2.922309748142043E-004  2.994490798921344E-004  3.068454721654499E-004 
 3.144245553279449E-004  3.221908418445468E-004  3.301489556381097E-004  3.383036348423557E-004 
 3.466597346229658E-004  3.552222300681613E-004  3.639962191508496E-004  3.729869257638730E-004 
 3.821997028302379E-004  3.916400354901541E-004  4.013135443667411E-004  4.112259889126182E-004 
 4.213832708387477E-004  4.317914376284577E-004  4.424566861378896E-004  4.533853662855046E-004 
 4.645839848327491E-004  4.760592092581216E-004  4.878178717267913E-004  4.998669731584485E-004 
 5.122136873954648E-004  5.248653654741178E-004  5.378295400013444E-004  5.511139296393676E-004 
 5.647264437014638E-004  5.786751868608965E-004  5.929684639763604E-004  6.076147850365697E-004 
 6.226228702269674E-004  6.380016551215823E-004  6.537602960030828E-004  6.699081753143457E-004 
 6.864549072446152E-004  7.034103434535704E-004  7.207845789368620E-004  7.385879580366107E-004 
 7.568310806001082E-004  7.755248082909470E-004  7.946802710557207E-004  8.143088737507906E-004 
 8.344223029324326E-004  8.550325338148784E-004  8.761518374001104E-004  8.977927877838946E-004 
 9.199682696421536E-004  9.426914859023163E-004  9.659759656040824E-004  9.898355719545084E-004 
 1.014284510581781E-003  1.039337337993148E-003  1.065008970241582E-003  1.091314691806565E-003 
 1.118270164694189E-003  1.145891437762118E-003  1.174194956274847E-003  1.203197571694840E-003 
 1.232916551715691E-003  1.263369590543068E-003  1.294574819429503E-003  1.326550817469400E-003 
 1.359316622660886E-003  1.392891743240610E-003  1.427296169298655E-003  1.462550384680332E-003 
 1.498675379181956E-003  1.535692661047734E-003  1.573624269775630E-003  1.612492789239066E-003 
 1.652321361133282E-003  1.693133698753272E-003  1.734954101112480E-003  1.777807467409962E-003 
 1.821719311854975E-003  1.866715778857808E-003  1.912823658595596E-003  1.960070402962910E-003 
 2.008484141916077E-003  2.058093700221405E-003  2.108928614616867E-003  2.161019151397908E-003 
 2.214396324437440E-003  2.269091913651048E-003  2.325138483918218E-003  2.382569404471001E-003 
 2.441418868761382E-003  2.501721914819731E-003  2.563514446115934E-003  2.626833252935007E-003 
 2.691716034282559E-003  2.758201420329271E-003  2.826328995411452E-003  2.896139321597909E-003 
 2.967673962841450E-003  3.040975509723777E-003  3.116087604813808E-003  3.193054968652817E-003 
 3.271923426378378E-003  3.352739935010022E-003  3.435552611404674E-003  3.520410760906518E-003 
 3.607364906700785E-003  3.696466819896383E-003  3.787769550347821E-003  3.881327458241368E-003 
 3.977196246460019E-003  4.075432993747594E-003  4.176096188693136E-003  4.279245764553697E-003 
 4.384943134938201E-003  4.493251230371158E-003  4.604234535761379E-003  4.717959128794704E-003 
 4.834492719275895E-003  4.953904689442130E-003  5.076266135271279E-003  5.201649908812530E-003 
 5.330130661560125E-003  5.461784888900676E-003  5.596690975656531E-003  5.734929242755192E-003 
 5.876581995051388E-003  6.021733570329124E-003  6.170470389516155E-003  6.322881008137256E-003 
 6.479056169038220E-003  6.639088856413553E-003  6.803074351166902E-003  6.971110287640773E-003 
 7.143296711745370E-003  7.319736140525543E-003  7.500533623196626E-003  7.685796803689636E-003 
 7.875635984740746E-003  8.070164193563831E-003  8.269497249144867E-003  8.473753831198687E-003 
 8.683055550829356E-003  8.897527022934629E-003  9.117295940401138E-003  9.342493150129061E-003 
 9.573252730937306E-003  9.809712073391402E-003  1.005201196160436E-002  1.030029665705590E-002 
 1.055471398448516E-002  1.081541541990186E-002  1.108255618077361E-002  1.135629531843853E-002 
 1.163679581280394E-002  1.192422466938028E-002  1.221875301871404E-002  1.252055621827616E-002 
 1.282981395686759E-002  1.314671036160236E-002  1.347143410753381E-002  1.380417852998994E-002 
 1.414514173968069E-002  1.449452674065077E-002  1.485254155114485E-002  1.521939932745818E-002 
 1.559531849084648E-002  1.598052285757029E-002  1.637524177215224E-002  1.677971024392446E-002 
 1.719416908694947E-002  1.761886506339708E-002  1.805405103046295E-002  1.849998609091540E-002 
 1.895693574736104E-002  1.942517206032083E-002  1.990497381021076E-002  2.039662666332301E-002 
 2.090042334190706E-002  2.141666379845202E-002  2.194565539427379E-002  2.248771308251245E-002 
 2.304315959565035E-002  2.361232563766310E-002  2.419555008091327E-002  2.479318016791159E-002 
 2.540557171805988E-002  2.603308933949449E-002  2.667610664618119E-002  2.733500648034251E-002 
 2.801018114040643E-002  2.870203261457422E-002  2.941097282015414E-002  3.013742384881197E-002 
 3.088181821787762E-002  3.164459912785915E-002  3.242622072631777E-002  3.322714837825761E-002 
 3.404785894320108E-002  3.488884105909621E-002  3.575059543325599E-002  3.663363514045913E-002 
 3.753848592842689E-002  3.846568653085896E-002  3.941578898817244E-002  4.038935897618049E-002 
 4.138697614289133E-002  4.240923445362017E-002  4.345674254462416E-002  4.453012408547727E-002 
 4.563001815038777E-002  4.675707959870230E-002  4.791197946479158E-002  4.909540535757183E-002 
 5.030806186990306E-002  5.155067099809148E-002  5.282397257174230E-002  5.412872469426554E-002 
 5.546570419421292E-002  5.683570708781187E-002  5.823954905287965E-002  5.967806591448609E-002 
 6.115211414257451E-002  6.266257136189506E-002  6.421033687453312E-002  6.579633219533561E-002 
 6.742150160055940E-002  6.908681269009366E-002  7.079325696353857E-002  7.254185041053879E-002 
 7.433363411567849E-002  7.616967487833619E-002  7.805106584783073E-002  7.997892717427135E-002 
 8.195440667547726E-002  8.397868052035991E-002  8.605295392921439E-002  8.817846189126646E-002 
 9.035646989998017E-002  9.258827470650931E-002  9.487520509176105E-002  9.721862265752571E-002 
 9.961992263716782E-002  1.020805347263057E-001  1.046019239340454E-001  1.071855914552155E-001 
 1.098330755641597E-001  1.125459525305937E-001  1.153258375581003E-001  1.181743857457854E-001 
 1.210932930737063E-001  1.240842974126269E-001  1.271491795587192E-001  1.302897642938189E-001 
 1.335079214718771E-001  1.368055671322314E-001  1.401846646403985E-001  1.436472258570143E-001 
 1.471953123356828E-001  1.508310365503757E-001  1.545565631531688E-001  1.583741102630534E-001 
 1.622859507865511E-001  1.662944137709779E-001  1.704018857911214E-001  1.746108123701610E-001 
 1.789236994357042E-001  1.833431148117665E-001  1.878716897476172E-001  1.925121204843835E-001 
 1.972671698603466E-001  2.021396689558982E-001  2.071325187791077E-001  2.122486919929523E-001 
 2.174912346851789E-001  2.228632681819025E-001  2.283679909059950E-001  2.340086802813741E-001 
 2.397886946843234E-001  2.457114754430362E-001  2.517805488864766E-001  2.579995284439746E-001 
 2.643721167965258E-001  2.709021080814158E-001  2.775933901510157E-001  2.844499468877453E-001 
 2.914758605758647E-001  2.986753143320928E-001  3.060525945961042E-001  3.136120936826352E-001 
 3.213583123965904E-001  3.292958627127849E-001  3.374294705217853E-001  3.457639784436804E-001 
 3.543043487112205E-001  3.630556661243999E-001  3.720231410776775E-001  3.812121126623005E-001 
 3.906280518450483E-001  4.002765647256176E-001  4.101633958743558E-001  4.202944317524426E-001 
 4.306757042167377E-001  4.413133941108835E-001  4.522138349454178E-001  4.633835166685813E-001 
 4.748290895302833E-001  4.865573680416915E-001  4.985753350323227E-001  5.108901458076129E-001 
 5.235091324090645E-001  5.364398079795563E-001  5.496898712366487E-001  5.632672110561995E-001 
 5.771799111692935E-001  5.914362549751689E-001  6.060447304730691E-001  6.210140353157516E-001 
 6.363530819880471E-001  6.520710031131518E-001  6.681771568900440E-001  6.846811326652233E-001 
 7.015927566420646E-001  7.189220977311044E-001  7.366794735450707E-001  7.548754565416261E-001 
 7.735208803182221E-001  7.926268460620625E-001  8.122047291598130E-001  8.322661859700593E-001 
 8.528231607635114E-001  8.738878928343768E-001  8.954729237873857E-001  9.175911050049372E-001 
 9.402556052985629E-001  9.634799187494151E-001  9.872778727425394E-001  1.011663636199275E+000 
 1.036651728013394E+000  1.062257025695321E+000  1.088494774230000E+000  1.115380595153484E+000 
 1.142930495853778E+000  1.171160879101364E+000  1.200088552815180E+000  1.229730740069699E+000 
 1.260105089349421E+000  1.291229685056365E+000  1.323123058277252E+000  1.355804197816696E+000 