<UPF version="2.0.1">
  <PP_INFO>
    Generated using FHI98PP, converted with fhi2upf.x v.5.0.1
    Author: Abinit web site
    Generation date: 10-Jul-2012, PG
    Pseudopotential type: SL
    Element: Rh
    Functional: SLA-PW

    Suggested minimum cutoff for wavefunctions:   0. Ry
    Suggested minimum cutoff for charge density:   0. Ry
    The Pseudo was generated with a Non-Relativistic Calculation
    L component and cutoff radius for Local Potential:  1   0.0000

    Valence configuration: 
    nl pn  l   occ       Rcut    Rcut US       E pseu
    5s  5  0  2.00      0.000      0.000     0.000000
    5p  5  1  0.00      0.000      0.000     0.000000
    4d  4  2  7.00      0.000      0.000     0.000000
    4f  4  3  0.00      0.000      0.000     0.000000

    Generation configuration: not available.
    Comment:
    rhodium, fhi98PP : Trouiller-Martins-type, LDA Ceperley/Alder Perdew/Wang (1992)
  </PP_INFO>
  <!--                               -->
  <!-- END OF HUMAN READABLE SECTION -->
  <!--                               -->
  <PP_HEADER generated="Generated using FHI98PP, converted with fhi2upf.x v.5.0.1"
             author="Abinit web site"
             date="10-Jul-2012, PG"
             comment="rhodium, fhi98PP : Trouiller-Martins-type, LDA Ceperley/Alder Perdew/Wang (1992)"
             element="Rh"
             pseudo_type="SL"
             relativistic="no"
             is_ultrasoft="F"
             is_paw="F"
             is_coulomb="F"
             has_so="F"
             has_wfc="F"
             has_gipaw="F"
             paw_as_gipaw="F"
             core_correction="F"
             functional="SLA-PW"
             z_valence="9.000000000000000E+000"
             total_psenergy="0.000000000000000E+000"
             wfc_cutoff="0.000000000000000E+000"
             rho_cutoff="0.000000000000000E+000"
             l_max="3"
             l_max_rho="0"
             l_local="1"
             mesh_size="543"
             number_of_wfc="4"
             number_of_proj="3"/>
  <PP_MESH dx="2.439988682353512E-002" mesh="543" xmin="-5.075173815233819E+000" rmax="7.693049511392201E+001"
zmesh="4.500000000000000E+001">
    <PP_R type="real" size="543" columns="4">
 1.388888888888900E-004  1.423194444444400E-004  1.458347347222200E-004  1.494368526698600E-004 
 1.531279429308100E-004  1.569102031212000E-004  1.607858851382900E-004  1.647572965012100E-004 
 1.688268017247900E-004  1.729968237273900E-004  1.772698452734600E-004  1.816484104517100E-004 
 1.861351261898700E-004  1.907326638067600E-004  1.954437606027800E-004  2.002712214896700E-004 
 2.052179206604700E-004  2.102868033007800E-004  2.154808873423100E-004  2.208032652596700E-004 
 2.262571059115800E-004  2.318456564275900E-004  2.375722441413600E-004  2.434402785716500E-004 
 2.494532534523700E-004  2.556147488126400E-004  2.619284331083100E-004  2.683980654060900E-004 
 2.750274976216200E-004  2.818206768128700E-004  2.887816475301500E-004  2.959145542241500E-004 
 3.032236437134800E-004  3.107132677132000E-004  3.183878854257200E-004  3.262520661957400E-004 
 3.343104922307700E-004  3.425679613888700E-004  3.510293900351800E-004  3.596998159690500E-004 
 3.685844014234800E-004  3.776884361386400E-004  3.870173405112600E-004  3.965766688218900E-004 
 4.063721125417900E-004  4.164095037215800E-004  4.266948184635000E-004  4.372341804795500E-004 
 4.480338647373900E-004  4.591003011964100E-004  4.704400786359600E-004  4.820599485782700E-004 
 4.939668293081500E-004  5.061678099920600E-004  5.186701548988600E-004  5.314813077248700E-004 
 5.446088960256700E-004  5.580607357575000E-004  5.718448359307100E-004  5.859694033782000E-004 
 6.004428476416400E-004  6.152737859783900E-004  6.304710484920600E-004  6.460436833898100E-004 
 6.620009623695400E-004  6.783523861400700E-004  6.951076900777300E-004  7.122768500226500E-004 
 7.298700882182099E-004  7.478978793972000E-004  7.663709570183100E-004  7.853003196566600E-004 
 8.046972375521800E-004  8.245732593197200E-004  8.449402188249100E-004  8.658102422298900E-004 
 8.871957552129700E-004  9.091094903667300E-004  9.315644947787899E-004  9.545741377998200E-004 
 9.781521190034800E-004  1.002312476342900E-003  1.027069594508500E-003  1.052438213492900E-003 
 1.078433437366200E-003  1.105070743269100E-003  1.132365990627900E-003  1.160335430596400E-003 
 1.188995715732100E-003  1.218363909910700E-003  1.248457498485500E-003  1.279294398698100E-003 
 1.310892970345900E-003  1.343272026713500E-003  1.376450845773300E-003  1.410449181663900E-003 
 1.445287276451000E-003  1.480985872179300E-003  1.517566223222100E-003  1.555050108935700E-003 
 1.593459846626400E-003  1.632818304838100E-003  1.673148916967600E-003  1.714475695216700E-003 
 1.756823244888600E-003  1.800216779037300E-003  1.844682133479500E-003  1.890245782176500E-003 
 1.936934852996200E-003  1.984777143865200E-003  2.033801139318700E-003  2.084036027459900E-003 
 2.135511717338100E-003  2.188258856756400E-003  2.242308850518300E-003  2.297693879126100E-003 
 2.354446917940500E-003  2.412601756813600E-003  2.472193020206900E-003  2.533256187806000E-003 
 2.595827615644800E-003  2.659944557751300E-003  2.725645188327700E-003  2.792968624479400E-003 
 2.861954949504100E-003  2.932645236756800E-003  3.005081574104700E-003  3.079307088985100E-003 
 3.155365974083000E-003  3.233303513642900E-003  3.313166110429900E-003  3.395001313357500E-003 
 3.478857845797400E-003  3.564785634588600E-003  3.652835839762900E-003  3.743060885005100E-003 
 3.835514488864700E-003  3.930251696739700E-003  4.027328913649100E-003  4.126803937816300E-003 
 4.228735995080300E-003  4.333185774158800E-003  4.440215462780500E-003  4.549888784711200E-003 
 4.662271037693600E-003  4.777429132324600E-003  4.895431631893000E-003  5.016348793200800E-003 
 5.140252608392800E-003  5.267216847820100E-003  5.397317103961300E-003  5.530630836429100E-003 
 5.667237418088900E-003  5.807218182315700E-003  5.950656471418900E-003  6.097637686263000E-003 
 6.248249337113700E-003  6.402581095740400E-003  6.560724848805200E-003  6.722774752570700E-003 
 6.888827288959200E-003  7.058981322996500E-003  7.233338161674500E-003  7.412001614267800E-003 
 7.595078054140200E-003  7.782676482077500E-003  7.974908591184800E-003  8.171888833387099E-003 
 8.373734487571701E-003  8.580565729414799E-003  8.792505702931301E-003  9.009680593793701E-003 
 9.232219704460400E-003  9.460255531160601E-003  9.693923842780301E-003  9.933363761696901E-003 
 1.017871784661100E-002  1.043013217742200E-002  1.068775644220400E-002  1.095174402632700E-002 
 1.122225210377700E-002  1.149944173074000E-002  1.178347794149000E-002  1.207452984664500E-002 
 1.237277073385700E-002  1.267837817098300E-002  1.299153411180600E-002  1.331242500436800E-002 
 1.364124190197600E-002  1.397818057695500E-002  1.432344163720500E-002  1.467723064564400E-002 
 1.503975824259200E-002  1.541124027118400E-002  1.579189790588200E-002  1.618195778415700E-002 
 1.658165214142600E-002  1.699121894931900E-002  1.741090205736700E-002  1.784095133818400E-002 
 1.828162283623700E-002  1.873317892029200E-002  1.919588843962400E-002  1.967002688408200E-002 
 2.015587654811900E-002  2.065372669885800E-002  2.116387374832000E-002  2.168662142990300E-002 
 2.222228097922200E-002  2.277117131940800E-002  2.333361925099800E-002  2.390995964649700E-002 
 2.450053564976600E-002  2.510569888031500E-002  2.572580964265900E-002  2.636123714083300E-002 
 2.701235969821100E-002  2.767956498275700E-002  2.836325023783100E-002  2.906382251870600E-002 
 2.978169893491800E-002  3.051730689861000E-002  3.127108437900600E-002  3.204348016316700E-002 
 3.283495412319700E-002  3.364597749004000E-002  3.447703313404400E-002  3.532861585245500E-002 
 3.620123266401100E-002  3.709540311081200E-002  3.801165956764900E-002  3.895054755897000E-002 
 3.991262608367600E-002  4.089846794794300E-002  4.190866010625700E-002  4.294380401088200E-002 
 4.400451596995100E-002  4.509142751440900E-002  4.620518577401400E-002  4.734645386263300E-002 
 4.851591127304000E-002  4.971425428148400E-002  5.094219636223600E-002  5.220046861238400E-002 
 5.348982018710900E-002  5.481101874573100E-002  5.616485090875100E-002  5.755212272619700E-002 
 5.897366015753400E-002  6.043030956342500E-002  6.192293820964100E-002  6.345243478342000E-002 
 6.501970992257000E-002  6.662569675765800E-002  6.827135146757200E-002  6.995765384882099E-002 
 7.168560789888700E-002  7.345624241398900E-002  7.527061160161500E-002  7.712979570817401E-002 
 7.903490166216599E-002  8.098706373322200E-002  8.298744420743200E-002  8.503723407935600E-002 
 8.713765376111600E-002  8.928995380901600E-002  9.149541566809800E-002  9.375535243510000E-002 
 9.607110964024700E-002  9.844406604836101E-002  1.008756344797600E-001  1.033672626514100E-001 
 1.059204340389000E-001  1.085366687596600E-001  1.112175244780200E-001  1.139645973326300E-001 
 1.167795228867400E-001  1.196639771020500E-001  1.226196773364700E-001  1.256483833666800E-001 
 1.287518984358300E-001  1.319320703272000E-001  1.351907924642800E-001  1.385300050381500E-001 
 1.419516961625900E-001  1.454579030578100E-001  1.490507132633300E-001  1.527322658809400E-001 
 1.565047528482000E-001  1.603704202435500E-001  1.643315696235600E-001  1.683905593932700E-001 
 1.725498062102800E-001  1.768117864236700E-001  1.811790375483400E-001  1.856541597757800E-001 
 1.902398175222400E-001  1.949387410150400E-001  1.997537279181100E-001  2.046876449976900E-001 
 2.097434298291400E-001  2.149240925459100E-001  2.202327176318000E-001  2.256724657573000E-001 
 2.312465756615100E-001  2.369583660803500E-001  2.428112377225300E-001  2.488086752942800E-001 
 2.549542495740500E-001  2.612516195385300E-001  2.677045345411300E-001  2.743168365443000E-001 
 2.810924624069400E-001  2.880354462283900E-001  2.951499217502300E-001  3.024401248174600E-001 
 3.099103959004500E-001  3.175651826792000E-001  3.254090426913700E-001  3.334466460458500E-001 
 3.416827782031800E-001  3.501223428248000E-001  3.587703646925700E-001  3.676319927004800E-001 
 3.767125029201800E-001  3.860173017423100E-001  3.955519290953400E-001  4.053220617440000E-001 
 4.153335166690800E-001  4.255922545308000E-001  4.361043832177100E-001  4.468761614831900E-001 
 4.579140026718200E-001  4.692244785378200E-001  4.808143231577000E-001  4.926904369397000E-001 
 5.048598907321100E-001  5.173299300331901E-001  5.301079793050100E-001  5.432016463938401E-001 
 5.566187270597700E-001  5.703672096181500E-001  5.844552796957200E-001  5.988913251042000E-001 
 6.136839408342800E-001  6.288419341728800E-001  6.443743299469500E-001  6.602903758966400E-001 
 6.765995481812900E-001  6.933115570213700E-001  7.104363524797900E-001  7.279841303860500E-001 
 7.459653384065800E-001  7.643906822652200E-001  7.832711321171700E-001  8.026179290804700E-001 
 8.224425919287600E-001  8.427569239494000E-001  8.635730199709500E-001  8.849032735642300E-001 
 9.067603844212599E-001  9.291573659164700E-001  9.521075528546100E-001  9.756246094101100E-001 
 9.997225372625400E-001  1.024415683932900E+000  1.049718751326100E+000  1.075646804483800E+000 
 1.102215280554600E+000  1.129439997984300E+000  1.157337165934500E+000  1.185923393933100E+000 
 1.215215701763200E+000  1.245231529596800E+000  1.275988748377800E+000  1.307505670462700E+000 
 1.339801060523200E+000  1.372894146718100E+000  1.406804632142000E+000  1.441552706555900E+000 
 1.477159058407900E+000  1.513644887150500E+000  1.551031915863200E+000  1.589342404185000E+000 
 1.628599161568300E+000  1.668825560859100E+000  1.710045552212300E+000  1.752283677351900E+000 
 1.795565084182500E+000  1.839915541761900E+000  1.885361455643400E+000  1.931929883597800E+000 
 1.979648551722600E+000  2.028545870950200E+000  2.078650953962600E+000  2.129993632525500E+000 
 2.182604475248900E+000  2.236514805787500E+000  2.291756721490500E+000  2.348363112511300E+000 
 2.406367681390300E+000  2.465804963120700E+000  2.526710345709800E+000  2.589120091248800E+000 
 2.653071357502600E+000  2.718602220033000E+000  2.785751694867800E+000  2.854559761731000E+000 
 2.925067387845800E+000  2.997316552325600E+000  3.071350271168000E+000  3.147212622865800E+000 
 3.224948774650600E+000  3.304605009384500E+000  3.386228753116300E+000  3.469868603318300E+000 
 3.555574357820200E+000  3.643397044458400E+000  3.733388951456500E+000  3.825603658557500E+000 
 3.920096068923900E+000  4.016922441826300E+000  4.116140426139400E+000  4.217809094665000E+000 
 4.321988979303200E+000  4.428742107092000E+000  4.538132037137200E+000  4.650223898454500E+000 
 4.765084428746300E+000  4.882782014136400E+000  5.003386729885500E+000  5.126970382113700E+000 
 5.253606550551900E+000  5.383370632350500E+000  5.516339886969600E+000  5.652593482177700E+000 
 5.792212541187500E+000  5.935280190954900E+000  6.081881611671500E+000  6.232104087479700E+000 
 6.386037058440500E+000  6.543772173784000E+000  6.705403346476400E+000  6.871026809134400E+000 
 7.040741171320000E+000  7.214647478251600E+000  7.392849270964400E+000  7.575452647957300E+000 
 7.762566328361800E+000  7.954301716672300E+000  8.150772969074101E+000  8.352097061410300E+000 
 8.558393858827101E+000  8.769786187140101E+000  8.986399905962500E+000  9.208363983639799E+000 
 9.435810574035701E+000  9.668875095214400E+000  9.907696310066100E+000  1.015241640892500E+001 
 1.040318109422500E+001  1.066013966725300E+001  1.092344511703400E+001  1.119325421142400E+001 
 1.146972759044700E+001  1.175302986193100E+001  1.204332969952000E+001  1.234079994309900E+001 
 1.264561770169300E+001  1.295796445892500E+001  1.327802618106000E+001  1.360599342773200E+001 
 1.394206146539700E+001  1.428643038359300E+001  1.463930521406800E+001  1.500089605285500E+001 
 1.537141818536100E+001  1.575109221453900E+001  1.614014419223800E+001  1.653880575378600E+001 
 1.694731425590500E+001  1.736591291802600E+001  1.779485096710100E+001  1.823438378598800E+001 
 1.868477306550200E+001  1.914628696022000E+001  1.961920024813800E+001  2.010379449426700E+001 
 2.060035821827500E+001  2.110918706626600E+001  2.163058398680300E+001  2.216485941127700E+001 
 2.271233143873600E+001  2.327332602527200E+001  2.384817717809700E+001  2.443722715439600E+001 
 2.504082666510900E+001  2.565933508373700E+001  2.629312066030600E+001  2.694256074061500E+001 
 2.760804199090800E+001  2.828996062808400E+001  2.898872265559800E+001  2.970474410519100E+001 
 3.043845128458900E+001  3.119028103131800E+001  3.196068097279200E+001  3.275010979282000E+001 
 3.355903750470300E+001  3.438794573106900E+001  3.523732799062600E+001  3.610768999199500E+001 
 3.699954993479700E+001  3.791343881818600E+001  3.884990075699600E+001  3.980949330569300E+001 
 4.079278779034400E+001  4.180036964876500E+001  4.283283877909000E+001  4.389080989693300E+001 
 4.497491290138800E+001  4.608579325005200E+001  4.722411234332800E+001  4.839054791820900E+001 
 4.958579445178800E+001  5.081056357474700E+001  5.206558449504400E+001  5.335160443207100E+001 
 5.466938906154300E+001  5.601972297136400E+001  5.740341012875600E+001  5.882127435893600E+001 
 6.027415983560200E+001  6.176293158354200E+001  6.328847599365500E+001  6.485170135069799E+001 
 6.645353837406100E+001  6.809494077190000E+001  6.977688580896600E+001  7.150037488844700E+001 
 7.326643414819200E+001  7.507611507165200E+001  7.693049511392201E+001
    </PP_R>
    <PP_RAB type="real" size="543" columns="4">
 3.388873169935460E-006  3.472578337232730E-006  3.558351022162436E-006  3.646242292409876E-006 
 3.736304477032509E-006  3.828591197615188E-006  3.923157400196194E-006  4.020059387981143E-006 
 4.119354854864280E-006  4.221102919779371E-006  4.325364161898007E-006  4.432200656696778E-006 
 4.541676012917256E-006  4.653855410436318E-006  4.768805639073925E-006  4.886595138359083E-006 
 5.007294038276678E-006  5.130974201022023E-006  5.257709263787286E-006  5.387574682602952E-006 
 5.520647777263151E-006  5.657007777361403E-006  5.796735869462439E-006  5.939915245438123E-006 
 6.086631152000450E-006  6.236970941454775E-006  6.391024123708653E-006  6.548882419564373E-006 
 6.710639815327603E-006  6.876392618766097E-006  7.046239516449670E-006  7.220281632506107E-006 
 7.398622588828849E-006  7.581368566772849E-006  7.768628370372234E-006  7.960513491120545E-006 
 8.157138174351106E-006  8.358619487257577E-006  8.565077388592959E-006  8.776634800091230E-006 
 8.993417679653349E-006  9.215555096340788E-006  9.443179307220299E-006  9.676425836108685E-006 
 9.915433554260554E-006  1.016034476305098E-005  1.041130527869826E-005  1.066846451908215E-005 
 1.093197559270336E-005  1.120199538984329E-005  1.147868467597239E-005  1.176220818746895E-005 
 1.205273472969935E-005  1.235043727752290E-005  1.265549307827761E-005  1.296808375731127E-005 
 1.328839542611676E-005  1.361661879314174E-005  1.395294927733233E-005  1.429758712448248E-005 
 1.465073752645716E-005  1.501261074336069E-005  1.538342222872179E-005  1.576339275777112E-005 
 1.615274855888811E-005  1.655172144829270E-005  1.696054896806554E-005  1.737947452757676E-005 
 1.780874754840792E-005  1.824862361285360E-005  1.869936461609106E-005  1.916123892210846E-005 
 1.963452152348455E-005  2.011949420511465E-005  2.061644571198080E-005  2.112567192106684E-005 
 2.164747601751724E-005  2.218216867514991E-005  2.273006824142615E-005  2.329150092698923E-005 
 2.386680099988597E-005  2.445631098458399E-005  2.506038186590151E-005  2.567937329799025E-005 
 2.631365381845123E-005  2.696360106776587E-005  2.762960201414099E-005  2.831205318389005E-005 
 2.901136089753138E-005  2.972794151170082E-005  3.046222166703997E-005  3.121463854221605E-005 
 3.198564011420774E-005  3.277568542503004E-005  3.358524485502771E-005  3.441480040294689E-005 
 3.526484597289972E-005  3.613588766842937E-005  3.702844409383888E-005  3.794304666295704E-005 
 3.888023991553179E-005  3.984058184144611E-005  4.082464421292980E-005  4.183301292498917E-005 
 4.286628834423757E-005  4.392508566633906E-005  4.501003528229711E-005  4.612178315377122E-005 
 4.726099119766791E-005  4.842833768025017E-005  4.962451762095306E-005  5.085024320619129E-005 
 5.210624421338276E-005  5.339326844545451E-005  5.471208217605765E-005  5.606347060580622E-005 
 5.744823832976929E-005  5.886720981651384E-005  6.032122989898184E-005  6.181116427748644E-005 
 6.333790003514015E-005  6.490234616600990E-005  6.650543411630894E-005  6.814811833898192E-005 
 6.983137686195621E-005  7.155621187044528E-005  7.332365030364545E-005  7.513474446614584E-005 
 7.699057265445885E-005  7.889223979902520E-005  8.084087812206162E-005  8.283764781167609E-005 
 8.488373771262376E-005  8.698036603412567E-005  8.912878107516763E-005  9.133026196772565E-005 
 9.358611943832783E-005  9.589769658845556E-005  9.826636969418870E-005  1.006935490256368E-004 
 1.031806796865685E-004  1.057292424748271E-004  1.083407547639548E-004  1.110167714066250E-004 
 1.137588856603695E-004  1.165687301361798E-004  1.194479777705430E-004  1.223983428214765E-004 
 1.254215818891655E-004  1.285194949618279E-004  1.316939264873861E-004  1.349467664716234E-004 
 1.382799516034726E-004  1.416954664080784E-004  1.451953444283580E-004  1.487816694357398E-004 
 1.524565766708026E-004  1.562222541145712E-004  1.600809437912014E-004  1.640349431028444E-004 
 1.680866061974847E-004  1.722383453705628E-004  1.764926325012154E-004  1.808520005239939E-004 
 1.853190449369362E-004  1.898964253468795E-004  1.945868670529470E-004  1.993931626691557E-004 
 2.043181737870824E-004  2.093648326796252E-004  2.145361440468109E-004  2.198351868047670E-004 
 2.252651159188446E-004  2.308291642820408E-004  2.365306446398080E-004  2.423729515624095E-004 
 2.483595634660055E-004  2.544940446836088E-004  2.607800475872860E-004  2.672213147627056E-004 
 2.738216812373377E-004  2.805850767638928E-004  2.875155281599786E-004  2.946171617055349E-004 
 3.018942055996584E-004  3.093509924779634E-004  3.169919619921622E-004  3.248216634533783E-004 
 3.328447585406794E-004  3.410660240766389E-004  3.494903548713126E-004  3.581227666366349E-004 
 3.669683989725743E-004  3.760325184271963E-004  3.853205216323421E-004  3.948379385166540E-004 
 4.045904355980232E-004  4.145838193572889E-004  4.248240396954096E-004  4.353171934758871E-004 
 4.460695281547379E-004  4.570874455001586E-004  4.683775054040318E-004  4.799464297874940E-004 
 4.918011066032494E-004  5.039485939363609E-004  5.163961242065940E-004  5.291511084744846E-004 
 5.422211408538140E-004  5.556140030328841E-004  5.693376689078116E-004  5.834003093298186E-004 
 5.978102969702778E-004  6.125762113054384E-004  6.277068437246881E-004  6.432112027646957E-004 
 6.590985194729697E-004  6.753782529039567E-004  6.920600957506820E-004  7.091539801157379E-004 
 7.266700834245957E-004  7.446188344851716E-004  7.630109196969634E-004  7.818572894134675E-004 
 8.011691644619747E-004  8.209580428241864E-004  8.412357064819440E-004  8.620142284320509E-004 
 8.833059798743312E-004  9.051236375772254E-004  9.274801914253816E-004  9.503889521535902E-004 
 9.738635592717703E-004  9.979179891857880E-004  1.022566563518672E-003  1.047823957637594E-003 
 1.073705209391248E-003  1.100225728063217E-003  1.127401303546357E-003  1.155248115743973E-003 
 1.183782744202848E-003  1.213022177984656E-003  1.242983825780861E-003  1.273685526277667E-003 
 1.305145558776704E-003  1.337382654078498E-003  1.370416005634248E-003  1.404265280973410E-003 
 1.438950633413452E-003  1.474492714058762E-003  1.510912684095999E-003  1.548232227393191E-003 
 1.586473563409792E-003  1.625659460426026E-003  1.665813249098545E-003  1.706958836351278E-003 
 1.749120719609158E-003  1.792324001383492E-003  1.836594404217676E-003  1.881958286001831E-003 
 1.928442655666078E-003  1.976075189261042E-003  2.024884246435776E-003  2.074898887322750E-003 
 2.126148889839620E-003  2.178664767418669E-003  2.232477787173893E-003  2.287619988517088E-003 
 2.344124202233461E-003  2.402024070028625E-003  2.461354064558441E-003  2.522149509953033E-003 
 2.584446602848877E-003  2.648282433939224E-003  2.713695010057435E-003  2.780723276805924E-003 
 2.849407141742885E-003  2.919787498144118E-003  2.991906249348262E-003  3.065806333707145E-003 
 3.141531750149540E-003  3.219127584378356E-003  3.298640035712457E-003  3.380116444594610E-003 
 3.463605320776041E-003  3.549156372199307E-003  3.636820534592437E-003  3.726650001797011E-003 
 3.818698256841416E-003  3.913020103785385E-003  4.009671700348745E-003  4.108710591347557E-003 
 4.210195742953750E-003  4.314187577804611E-003  4.420748010976516E-003  4.529940486847539E-003 
 4.641830016872630E-003  4.756483218289400E-003  4.873968353781111E-003  4.994355372119570E-003 
 5.117715949811096E-003  5.244123533771192E-003  5.373653385055487E-003  5.506382623666225E-003 
 5.642390274470895E-003  5.781757314250344E-003  5.924566719912213E-003  6.070903517894131E-003 
 6.220854834786147E-003  6.374509949205388E-003  6.531960344950721E-003  6.693299765471103E-003 
 6.858624269678137E-003  7.028032289139152E-003  7.201624686680860E-003  7.379504816441861E-003 
 7.561778585407943E-003  7.748554516467735E-003  7.939943813024337E-003  8.136060425206116E-003 
 8.337021117708645E-003  8.542945539316083E-003  8.753956294137130E-003  8.970179014602403E-003 
 9.191742436263035E-003  9.418778474438772E-003  9.651422302757284E-003  9.889812433635514E-003 
 1.013409080074639E-002  1.038440284352467E-002  1.064089759375971E-002  1.090372776432564E-002 
 1.117304984010437E-002  1.144902417115509E-002  1.173181506818252E-002  1.202159090036675E-002 
 1.231852419560579E-002  1.262279174323718E-002  1.293457469929514E-002  1.325405869436764E-002 
 1.358143394411857E-002  1.391689536253839E-002  1.426064267799313E-002  1.461288055213946E-002 
 1.497381870177746E-002  1.534367202371120E-002  1.572266072269686E-002  1.611101044254748E-002 
 1.650895240047847E-002  1.691672352477035E-002  1.733456659583198E-002  1.776273039074926E-002 
 1.820146983140063E-002  1.865104613623616E-002  1.911172697580117E-002  1.958378663210361E-002 
 2.006750616191662E-002  2.056317356411596E-002  2.107108395114961E-002  2.159153972474295E-002 
 2.212485075594394E-002  2.267133456961588E-002  2.323131653348547E-002  2.380513005186234E-002 
 2.439311676414335E-002  2.499562674821709E-002  2.561301872889945E-002  2.624566029150193E-002 
 2.689392810070325E-002  2.755820812479065E-002  2.823889586547269E-002  2.893639659335030E-002 
 2.965112558920489E-002  3.038350839125944E-002  3.113398104852256E-002  3.190299038042028E-002 
 3.269099424281841E-002  3.349846180061546E-002  3.432587380708976E-002  3.517372289012469E-002 
 3.604251384551246E-002  3.693276393749479E-002  3.784500320675293E-002  3.877977478595921E-002 
 3.973763522317071E-002  4.071915481318456E-002  4.172491793706973E-002  4.275552341011429E-002 
 4.381158483834431E-002  4.489373098385366E-002  4.600260613915439E-002  4.713887051079170E-002 
 4.830320061240665E-002  4.949628966753435E-002  5.071884802232075E-002  5.197160356847265E-002 
 5.325530217661441E-002  5.457070814037563E-002  5.591860463144410E-002  5.729979416584039E-002 
 5.871509908173594E-002  6.016536202905627E-002  6.165144647117442E-002  6.317423719901165E-002 
 6.473464085782613E-002  6.633358648701652E-002  6.797202607324547E-002  6.965093511725379E-002 
 7.137131321465102E-002  7.313418465105312E-002  7.494059901193310E-002  7.679163180752664E-002 
 7.868838511317292E-002  8.063198822546902E-002  8.262359833463817E-002  8.466440121350441E-002 
 8.675561192347646E-002  8.889847553798731E-002  9.109426788377506E-002  9.334429630050491E-002 
 9.564990041912809E-002  9.801245295948006E-002  1.004333605475790E-001  1.029140645531031E-001 
 1.054560419475642E-001  1.080608061836693E-001  1.107299080964066E-001  1.134649368263881E-001 
 1.162675207659992E-001  1.191393285289210E-001  1.220820699435837E-001  1.250974970711909E-001 
 1.281874052488491E-001  1.313536341584949E-001  1.345980689222108E-001  1.379226412245882E-001 
 1.413293304628358E-001  1.448201649252695E-001  1.483972229989240E-001  1.520626344069953E-001 
 1.558185814768493E-001  1.596673004393280E-001  1.636110827601778E-001  1.676522765043550E-001 
 1.717932877340121E-001  1.760365819410421E-001  1.803846855149855E-001  1.848401872472075E-001 
 1.894057398722125E-001  1.940840616470552E-001  1.988779379697374E-001  2.037902230375916E-001 
 2.088238415466193E-001  2.139817904328201E-001  2.192671406565116E-001  2.246830390307281E-001 
 2.302327100947871E-001  2.359194580341287E-001  2.417466686475694E-001  2.477178113631708E-001 
 2.538364413038303E-001  2.601062014040506E-001  2.665308245787270E-001  2.731141359458035E-001 
 2.798600551036850E-001  2.867725984647450E-001  2.938558816468072E-001  3.011141219235043E-001 
 3.085516407350015E-001  3.161728662611605E-001  3.239823360578002E-001  3.319846997584235E-001 
 3.401847218424570E-001  3.485872844719827E-001  3.571973903984468E-001  3.660201659412767E-001 
 3.750608640400380E-001  3.843248673818168E-001  3.938176916061449E-001  4.035449885888099E-001 
 4.135125498069653E-001  4.237263097872010E-001  4.341923496389389E-001  4.449169006750111E-001 
 4.559063481216862E-001  4.671672349202943E-001  4.787062656228394E-001  4.905303103837233E-001 
 5.026464090501916E-001  5.150617753537218E-001  5.277838012049643E-001  5.408200610947261E-001 
 5.541783166037770E-001  5.678665210238713E-001  5.818928240931800E-001  5.962655768482816E-001 
 6.109933365964201E-001  6.260848720103468E-001  6.415491683490194E-001  6.573954328072266E-001 
 6.736330999975604E-001  6.902718375675141E-001  7.073215519554397E-001  7.247923942887324E-001 
 7.426947664276589E-001  7.610393271584135E-001  7.798369985392373E-001  7.990989724031572E-001 
 8.188367170215237E-001  8.390619839319514E-001  8.597868149350606E-001  8.810235492639699E-001 
 9.027848309307831E-001  9.250836162547617E-001  9.479331815762738E-001  9.713471311611883E-001 
 9.953394053008789E-001  1.019924288611799E+000  1.045116418540522E+000  1.070930794078460E+000 
 1.097382784692217E+000  1.124488139474108E+000  1.152262996519111E+000  1.180723892533153E+000 
 1.209887772678703E+000  1.239772000663863E+000  1.270394369080279E+000  1.301773109996547E+000 
 1.333926905813458E+000  1.366874900387072E+000  1.400636710426616E+000  1.435232437174147E+000 
 1.470682678372355E+000  1.507008540528168E+000  1.544231651479201E+000  1.582374173270731E+000 
 1.621458815350536E+000  1.661508848089687E+000  1.702548116637504E+000  1.744601055118439E+000 
 1.787692701179874E+000  1.831848710899008E+000  1.877095374058219E+000
    </PP_RAB>
  </PP_MESH>
  <PP_LOCAL type="real" size="543" columns="4">
-1.050015669338860E+001 -1.050015671713660E+001 -1.050015674030620E+001 -1.050015676291100E+001 
-1.050015678496440E+001 -1.050015680647940E+001 -1.050015682746860E+001 -1.050015684794440E+001 
-1.050015686791860E+001 -1.050015688740300E+001 -1.050015690640900E+001 -1.050015692494760E+001 
-1.050015694302980E+001 -1.050015696066600E+001 -1.050015697786620E+001 -1.050015699464100E+001 
-1.050015701099940E+001 -1.050015702695140E+001 -1.050015704250580E+001 -1.050015705767180E+001 
-1.050015707245780E+001 -1.050015708687260E+001 -1.050015710092400E+001 -1.050015711462040E+001 
-1.050015712796920E+001 -1.050015714097800E+001 -1.050015715365420E+001 -1.050015716600480E+001 
-1.050015717803640E+001 -1.050015718975600E+001 -1.050015720116980E+001 -1.050015721228420E+001 
-1.050015722310480E+001 -1.050015723363780E+001 -1.050015724388860E+001 -1.050015725386280E+001 
-1.050015726356520E+001 -1.050015727300100E+001 -1.050015728217520E+001 -1.050015729109200E+001 
-1.050015729975580E+001 -1.050015730817120E+001 -1.050015731634180E+001 -1.050015732427160E+001 
-1.050015733196420E+001 -1.050015733942300E+001 -1.050015734665100E+001 -1.050015735365160E+001 
-1.050015736042720E+001 -1.050015736698060E+001 -1.050015737331420E+001 -1.050015737943040E+001 