<UPF version="2.0.1">
  <PP_INFO>
    Generated using FHI98PP, converted with fhi2upf.x v.5.0.1
    Author: Abinit web site
    Generation date: 10-Jul-2012, PG
    Pseudopotential type: SL
    Element: Rn
    Functional: SLA-PW

    Suggested minimum cutoff for wavefunctions:   0. Ry
    Suggested minimum cutoff for charge density:   0. Ry
    The Pseudo was generated with a Non-Relativistic Calculation
    L component and cutoff radius for Local Potential:  0   0.0000

    Valence configuration: 
    nl pn  l   occ       Rcut    Rcut US       E pseu
    6s  6  0  2.00      0.000      0.000     0.000000
    6p  6  1  6.00      0.000      0.000     0.000000
    6d  6  2  0.00      0.000      0.000     0.000000
    5f  5  3  0.00      0.000      0.000     0.000000

    Generation configuration: not available.
    Comment:
    radon, fhi98PP : Trouiller-Martins-type, LDA Ceperley/Alder Perdew/Wang (1992),
  </PP_INFO>
  <!--                               -->
  <!-- END OF HUMAN READABLE SECTION -->
  <!--                               -->
  <PP_HEADER generated="Generated using FHI98PP, converted with fhi2upf.x v.5.0.1"
             author="Abinit web site"
             date="10-Jul-2012, PG"
             comment="radon, fhi98PP : Trouiller-Martins-type, LDA Ceperley/Alder Perdew/Wang (1992),"
             element="Rn"
             pseudo_type="SL"
             relativistic="no"
             is_ultrasoft="F"
             is_paw="F"
             is_coulomb="F"
             has_so="F"
             has_wfc="F"
             has_gipaw="F"
             paw_as_gipaw="F"
             core_correction="T"
             functional="SLA-PW"
             z_valence="8.000000000000000E+000"
             total_psenergy="0.000000000000000E+000"
             wfc_cutoff="0.000000000000000E+000"
             rho_cutoff="0.000000000000000E+000"
             l_max="3"
             l_max_rho="0"
             l_local="0"
             mesh_size="571"
             number_of_wfc="4"
             number_of_proj="3"/>
  <PP_MESH dx="2.439988682353512E-002" mesh="571" xmin="-5.075173815233829E+000" rmax="7.971154076836800E+001"
zmesh="8.600000000000000E+001">
    <PP_R type="real" size="571" columns="4">
 7.267441860465100E-005  7.446947674418599E-005  7.630887281976700E-005  7.819370197841600E-005 
 8.012508641728299E-005  8.210417605178900E-005  8.413214920026900E-005  8.621021328551500E-005 
 8.833960555366701E-005  9.052159381084300E-005  9.275747717797100E-005  9.504858686426700E-005 
 9.739628695981400E-005  9.980197524772200E-005  1.022670840363400E-004  1.047930810120400E-004 
 1.073814701130400E-004  1.100337924248300E-004  1.127516270977200E-004  1.155365922870300E-004 
 1.183903461165200E-004  1.213145876656000E-004  1.243110579809400E-004  1.273815411130700E-004 
 1.305278651785600E-004  1.337519034484700E-004  1.370555754636500E-004  1.404408481776000E-004 
 1.439097371275900E-004  1.474643076346400E-004  1.511066760332200E-004  1.548390109312400E-004 
 1.586635345012400E-004  1.625825238034200E-004  1.665983121413700E-004  1.707132904512600E-004 
 1.749299087254000E-004  1.792506774709200E-004  1.836781692044500E-004  1.882150199838000E-004 
 1.928639309774000E-004  1.976276700725400E-004  2.025090735233400E-004  2.075110476393600E-004 
 2.126365705160500E-004  2.178886938078000E-004  2.232705445448500E-004  2.287853269951100E-004 
 2.344363245718900E-004  2.402269017888200E-004  2.461605062630000E-004  2.522406707677000E-004 
 2.584710153356600E-004  2.648552494144500E-004  2.713971740749900E-004  2.781006842746400E-004 
 2.849697711762200E-004  2.920085245242700E-004  2.992211350800200E-004  3.066118971165000E-004 
 3.141852109752800E-004  3.219455856863700E-004  3.298976416528200E-004  3.380461134016500E-004 
 3.463958524026700E-004  3.549518299570100E-004  3.637191401569500E-004  3.727030029188300E-004 
 3.819087670909200E-004  3.913419136380700E-004  4.010080589049300E-004  4.109129579598800E-004 
 4.210625080214900E-004  4.314627519696200E-004  4.421198819432700E-004  4.530402430272700E-004 
 4.642303370300400E-004  4.756968263546800E-004  4.874465379656400E-004  4.994864674534000E-004 
 5.118237831994900E-004  5.244658306445200E-004  5.374201366614400E-004  5.506944140369799E-004 
 5.642965660636900E-004  5.782346912454700E-004  5.925170881192300E-004  6.071522601957700E-004 
 6.221489210226100E-004  6.375159993718700E-004  6.532626445563500E-004  6.693982318768900E-004 
 6.859323682042500E-004  7.028748976988999E-004  7.202359076720600E-004  7.380257345915600E-004 
 7.562549702359699E-004  7.749344680008000E-004  7.940753493604200E-004  8.136890104896200E-004 
 8.337871290487200E-004  8.543816711362200E-004  8.754848984132800E-004  8.971093754040900E-004 
 9.192679769765700E-004  9.419738960078900E-004  9.652406512392899E-004  9.890820953249000E-004 
 1.013512423079400E-003  1.038546179929500E-003  1.064198270573700E-003  1.090483967856900E-003 
 1.117418921863000E-003  1.145019169233000E-003  1.173301142713100E-003  1.202281680938100E-003 
 1.231978038457200E-003  1.262407896007100E-003  1.293589371038500E-003  1.325541028503200E-003 
 1.358281891907200E-003  1.391831454637300E-003  1.426209691566800E-003  1.461437070948500E-003 
 1.497534566601000E-003  1.534523670396000E-003  1.572426405054800E-003  1.611265337259600E-003 
 1.651063591090000E-003  1.691844861789900E-003  1.733633429876100E-003  1.776454175594000E-003 
 1.820332593731200E-003  1.865294808796400E-003  1.911367590573600E-003  1.958578370060800E-003 
 2.006955255801300E-003  2.056527050619600E-003  2.107323268769900E-003  2.159374153508500E-003 
 2.212710695100200E-003  2.267364649269100E-003  2.323368556106100E-003  2.380755759441900E-003 
 2.439560426700100E-003  2.499817569239600E-003  2.561563063199800E-003  2.624833670860900E-003 
 2.689667062531100E-003  2.756101838975700E-003  2.824177554398400E-003  2.893934739992000E-003 
 2.965414928069800E-003  3.038660676793100E-003  3.113715595509900E-003  3.190624370719000E-003 
 3.269432792675800E-003  3.350187782654900E-003  3.432937420886400E-003  3.517730975182300E-003 
 3.604618930269300E-003  3.693653017847000E-003  3.784886247387800E-003  3.878372937698300E-003 
 3.974168749259400E-003  4.072330717366100E-003  4.172917286085100E-003  4.275988343051400E-003 
 4.381605255124700E-003  4.489830904926300E-003  4.600729728278000E-003  4.714367752566500E-003 
 4.830812636054900E-003  4.950133708165400E-003  5.072402010757100E-003  5.197690340422800E-003 
 5.326073291831200E-003  5.457627302139500E-003  5.592430696502300E-003  5.730563734705900E-003 
 5.872108658953200E-003  6.017149742829300E-003  6.165773341477200E-003  6.318067943011700E-003 
 6.474124221204100E-003  6.634035089467800E-003  6.797895756177700E-003  6.965803781355300E-003 
 7.137859134754700E-003  7.314164255383200E-003  7.494824112491100E-003  7.679946268069700E-003 
 7.869640940890999E-003  8.064021072131000E-003  8.263202392612599E-003  8.467303491710199E-003 
 8.676445887955400E-003  8.890754101387901E-003  9.110355727692200E-003  9.335381514166199E-003 
 9.565965437566101E-003  9.802244783874000E-003  1.004436023003600E-002  1.029245592771800E-002 
 1.054667958913200E-002  1.080718257498400E-002  1.107411998458600E-002  1.134765074820500E-002 
 1.162793772168600E-002  1.191514778341100E-002  1.220945193366200E-002  1.251102539642300E-002 
 1.282004772371500E-002  1.313670290249000E-002  1.346117946418200E-002  1.379367059694700E-002 
 1.413437426069200E-002  1.448349330493100E-002  1.484123558956300E-002  1.520781410862500E-002 
 1.558344711710800E-002  1.596835826090100E-002  1.636277670994500E-002  1.676693729468000E-002 
 1.718108064585900E-002  1.760545333781200E-002  1.804030803525600E-002  1.848590364372700E-002 
 1.894250546372700E-002  1.941038534868100E-002  1.988982186679300E-002  2.038110046690300E-002 
 2.088451364843500E-002  2.140036113555200E-002  2.192895005560000E-002  2.247059512197300E-002 
 2.302561882148600E-002  2.359435160637700E-002  2.417713209105400E-002  2.477430725370300E-002 
 2.538623264287000E-002  2.601327258914800E-002  2.665580042210000E-002  2.731419869252600E-002 
 2.798885940023200E-002  2.868018422741700E-002  2.938858477783500E-002  3.011448282184700E-002 
 3.085831054754700E-002  3.162051081807100E-002  3.240153743527700E-002  3.320185540992900E-002 
 3.402194123855400E-002  3.486228318714600E-002  3.572338158186900E-002  3.660574910694100E-002 
 3.750991110988200E-002  3.843640591429700E-002  3.938578514038000E-002  4.035861403334700E-002 
 4.135547179997100E-002  4.237695195343000E-002  4.342366266668000E-002  4.449622713454700E-002 
 4.559528394477000E-002  4.672148745820600E-002  4.787550819842400E-002  4.905803325092500E-002 
 5.026976667222200E-002  5.151142990902600E-002  5.278376222777900E-002  5.408752115480500E-002 
 5.542348292732900E-002  5.679244295563400E-002  5.819521629663800E-002  5.963263813916500E-002 
 6.110556430120300E-002  6.261487173944200E-002  6.416145907140700E-002  6.574624711047000E-002 
 6.737017941409899E-002  6.903422284562701E-002  7.073936814991399E-002  7.248663054321700E-002 
 7.427705031763400E-002  7.611169346048000E-002  7.799165228895399E-002  7.991804610049100E-002 
 8.189202183917300E-002  8.391475477860100E-002  8.598744922163200E-002  8.811133921740601E-002 
 9.028768929607600E-002  9.251779522168900E-002  9.480298476366500E-002  9.714461848732800E-002 
 9.954409056396500E-002  1.020028296008900E-001  1.045222994920400E-001  1.071040002894900E-001 
 1.097494690966400E-001  1.124602809833300E-001  1.152380499236200E-001  1.180844297567300E-001 
 1.210011151717200E-001  1.239898427164600E-001  1.270523918315600E-001  1.301905859098000E-001 
 1.334062933817700E-001  1.367014288283000E-001  1.400779541203600E-001  1.435378795871300E-001 
 1.470832652129300E-001  1.507162218636900E-001  1.544389125437300E-001  1.582535536835600E-001 
 1.621624164595400E-001  1.661678281460900E-001  1.702721735013000E-001  1.744778961867800E-001 
 1.787875002225900E-001  1.832035514780900E-001  1.877286791996000E-001  1.923655775758300E-001 
 1.971170073419500E-001  2.019857974233000E-001  2.069748466196600E-001  2.120871253311600E-001 
 2.173256773268400E-001  2.226936215568100E-001  2.281941540092700E-001  2.338305496133000E-001 
 2.396061641887500E-001  2.455244364442100E-001  2.515888900243800E-001  2.578031356079800E-001 
 2.641708730575000E-001  2.706958936220200E-001  2.773820821944800E-001  2.842334196246900E-001 
 2.912539850894200E-001  2.984479585211200E-001  3.058196230966000E-001  3.133733677870800E-001 
 3.211136899714200E-001  3.290451981137200E-001  3.371726145071300E-001  3.455007780854500E-001 
 3.540346473041600E-001  3.627793030925800E-001  3.717399518789600E-001  3.809219286903700E-001 
 3.903307003290200E-001  3.999718686271500E-001  4.098511737822400E-001  4.199744977746600E-001 
 4.303478678697000E-001  4.409774602060800E-001  4.518696034731700E-001  4.630307826789600E-001 
 4.744676430111300E-001  4.861869937935000E-001  4.981958125402000E-001  5.105012491099400E-001 
 5.231106299629600E-001  5.360314625230400E-001  5.492714396473600E-001  5.628384442066500E-001 
 5.767405537785600E-001  5.909860454568900E-001  6.055834007796700E-001  6.205413107789300E-001 
 6.358686811551700E-001  6.515746375797000E-001  6.676685311279200E-001  6.841599438467800E-001 
 7.010586944598000E-001  7.183748442129499E-001  7.361187028650100E-001  7.543008348257800E-001 
 7.729320654459800E-001  7.920234874624900E-001  8.115864676028200E-001  8.316326533525999E-001 
 8.521739798904100E-001  8.732226771937101E-001  8.947912773203900E-001  9.168926218702100E-001 
 9.395398696304000E-001  9.627465044102700E-001  9.865263430692000E-001  1.010893543743000E+000 
 1.035862614273500E+000  1.061448420846000E+000  1.087666196840900E+000  1.114531551902900E+000 
 1.142060481234900E+000  1.170269375121400E+000  1.199175028686900E+000  1.228794651895500E+000 
 1.259145879797300E+000  1.290246783028300E+000  1.322115878569100E+000  1.354772140769700E+000 
 1.388235012646700E+000  1.422524417459100E+000  1.457660770570300E+000  1.493664991603400E+000 
 1.530558516896000E+000  1.568363312263400E+000  1.607101886076300E+000  1.646797302662400E+000 
 1.687473196038100E+000  1.729153783980300E+000  1.771863882444600E+000  1.815628920341000E+000 
 1.860474954673400E+000  1.906428686053800E+000  1.953517474599300E+000  2.001769356221900E+000 
 2.051213059320600E+000  2.101878021885800E+000  2.153794409026400E+000  2.206993130929400E+000 
 2.261505861263300E+000  2.317365056036500E+000  2.374603972920600E+000  2.433256691051800E+000 
 2.493358131320800E+000  2.554944077164400E+000  2.618051195870300E+000  2.682717060408300E+000 
 2.748980171800400E+000  2.816879982043900E+000  2.886456917600400E+000  2.957752403465100E+000 
 3.030808887830700E+000  3.105669867360100E+000  3.182379913083900E+000  3.260984696937100E+000 
 3.341531018951400E+000  3.424066835119500E+000  3.508641285947000E+000  3.595304725709900E+000 
 3.684108752434900E+000  3.775106238620000E+000  3.868351362713900E+000  3.963899641373000E+000 
 4.061807962514900E+000  4.162134619189000E+000  4.264939344283000E+000  4.370283346086800E+000 
 4.478229344735100E+000  4.588841609550100E+000  4.702185997306000E+000  4.818329991439400E+000 
 4.937342742228000E+000  5.059295107961000E+000  5.184259697127600E+000  5.312310911646700E+000 
 5.443524991164400E+000  5.577980058446100E+000  5.715756165889700E+000  5.856935343187200E+000 
 6.001601646163900E+000  6.149841206824200E+000  6.301742284632700E+000  6.457395319063200E+000 
 6.616892983444000E+000  6.780330240135100E+000  6.947804397066400E+000  7.119415165674000E+000 
 7.295264720266100E+000  7.475457758856700E+000  7.660101565500500E+000  7.849306074168300E+000 
 8.043183934200300E+000  8.241850577375001E+000  8.445424286636200E+000  8.654026266516100E+000 
 8.867780715299000E+000  9.086814898966900E+000  9.311259226971400E+000  9.541247329877599E+000 
 9.776916138925600E+000  1.001840596755700E+001  1.026586059495600E+001  1.051942735165100E+001 
 1.077925720723700E+001  1.104550486025600E+001  1.131832883030400E+001  1.159789155241200E+001 
 1.188435947375700E+001  1.217790315275900E+001  1.247869736063200E+001  1.278692118544000E+001 
 1.310275813872000E+001  1.342639626474600E+001  1.375802825248600E+001  1.409785155032200E+001 
 1.444606848361500E+001  1.480288637516000E+001  1.516851766862700E+001  1.554318005504200E+001 
 1.592709660240100E+001  1.632049588848100E+001  1.672361213692600E+001  1.713668535670800E+001 
 1.755996148501900E+001  1.799369253369900E+001  1.843813673928100E+001  1.889355871674100E+001 
 1.936022961704500E+001  1.983842728858600E+001  2.032843644261400E+001  2.083054882274700E+001 
 2.134506337866800E+001  2.187228644412100E+001  2.241253191929100E+001  2.296612145769800E+001 
 2.353338465770300E+001  2.411465925874800E+001  2.471029134243900E+001  2.532063553859700E+001 
 2.594605523640100E+001  2.658692280074000E+001  2.724361979391800E+001  2.791653720282800E+001 
 2.860607567173800E+001  2.931264574083000E+001  3.003666809062800E+001  3.077857379246700E+001 
 3.153880456514100E+001  3.231781303790000E+001  3.311606301993600E+001  3.393402977652800E+001 
 3.477220031200800E+001  3.563107365971500E+001  3.651116117911000E+001  3.741298686023400E+001 
 3.833708763568200E+001  3.928401370028300E+001  4.025432883868000E+001  4.124861076099600E+001 
 4.226745144679200E+001  4.331145749752800E+001  4.438125049771700E+001  4.547746738501000E+001 
 4.660076082942000E+001  4.775179962190700E+001  4.893126907256800E+001  5.013987141866000E+001 
 5.137832624270100E+001  5.264737090089600E+001  5.394776096214800E+001  5.528027065791300E+001 
 5.664569334316400E+001  5.804484196874000E+001  5.947854956536800E+001  6.094766973963200E+001 
 6.245307718220100E+001  6.399566818860100E+001  6.557636119286001E+001  6.719609731432401E+001 
 6.885584091798700E+001  7.055658018866200E+001  7.229932771932199E+001  7.408512111398900E+001 
 7.591502360550400E+001  7.779012468856000E+001  7.971154076836800E+001
    </PP_R>
    <PP_RAB type="real" size="571" columns="4">
 1.773247588919700E-006  1.817046804366019E-006  1.861927860433850E-006  1.907917478586585E-006 
 1.955043040307676E-006  2.003332603403254E-006  2.052814918707335E-006  2.103519447199390E-006 
 2.155476377545210E-006  2.208716644070586E-006  2.263271945179134E-006  2.319174762225062E-006 
 2.376458378852011E-006  2.435156900809670E-006  2.495305276259651E-006  2.556939316583323E-006 
 2.620095717702995E-006  2.684812081930208E-006  2.751126940353804E-006  2.819079775780453E-006 
 2.888711046242239E-006  2.960062209084470E-006  3.033175745648848E-006  3.108095186566394E-006 
 3.184865137674515E-006  3.263531306575065E-006  3.344140529847537E-006  3.426740800934719E-006 
 3.511381298717887E-006  3.598112416796182E-006  3.686985793491155E-006  3.778054342590374E-006 
 3.871372284852316E-006  3.966995180288153E-006  4.064979961241405E-006  4.165384966284024E-006 
 4.268269974951088E-006  4.373696243332445E-006  4.481726540542714E-006  4.592425186094121E-006 
 4.705858088190649E-006  4.822092782968915E-006  4.941198474708449E-006  5.063246077033588E-006 
 5.188308255136265E-006  5.316459469038217E-006  5.447776017923397E-006  5.582336085566159E-006 
 5.720219786879662E-006  5.861509215615695E-006  6.006288493241308E-006  6.154643819024463E-006 
 6.306663521354315E-006  6.462438110331747E-006  6.622060331657015E-006  6.785625221848890E-006 
 6.953230164828469E-006  7.124974949899668E-006  7.300961831162203E-006  7.481295588391994E-006 
 7.666083589425337E-006  7.855435854084156E-006  8.049465119679954E-006  8.248286908136178E-006 
 8.452019594767123E-006  8.660784478757728E-006  8.874705855383088E-006  9.093911090011131E-006 
 9.318530693934282E-006  9.548698402074563E-006  9.784551252605796E-006  1.002622966854512E-005 
 1.027387754135820E-005  1.052764231662973E-005  1.078767508185050E-005  1.105413065637223E-005 
 1.132716768358454E-005  1.160694872536903E-005  1.189364035888563E-005  1.218741327575032E-005 
 1.248844238366113E-005  1.279690691053763E-005  1.311299051122792E-005  1.343688137685530E-005 
 1.376877234686355E-005  1.410886102383124E-005  1.445734989111980E-005  1.481444643343034E-005 
 1.518036326033617E-005  1.555531823286652E-005  1.593953459321819E-005  1.633324109767063E-005 
 1.673667215278312E-005  1.715006795495699E-005  1.757367463344435E-005  1.800774439689043E-005 
 1.845253568349359E-005  1.890831331487592E-005  1.937534865375336E-005  1.985391976550101E-005 
 2.034431158370904E-005  2.084681607982657E-005  2.136173243699818E-005  2.188936722819208E-005 
 2.243003459872840E-005  2.298405645331696E-005  2.355176264771401E-005  2.413349118511254E-005 
 2.472958841738420E-005  2.534040925129454E-005  2.596631735980009E-005  2.660768539858787E-005 
 2.726489522793384E-005  2.793833814006341E-005  2.862841509212407E-005  2.933553694489920E-005 
 3.006012470743648E-005  3.080260978771034E-005  3.156343424946738E-005  3.234305107543042E-005 
 3.314192443699284E-005  3.396052997058638E-005  3.479935506085885E-005  3.565889913086207E-005 
 3.653967393939612E-005  3.744220388569811E-005  3.836702632167532E-005  3.931469187181939E-005 
 4.028576476105547E-005  4.128082315065298E-005  4.230045948247385E-005  4.334528083168999E-005 
 4.441590926823342E-005  4.551298222715974E-005  4.663715288816886E-005  4.778909056450741E-005 
 4.896948110145070E-005  5.017902728465672E-005  5.141844925858764E-005  5.268848495527436E-005 
 5.398989053367061E-005  5.532344082985044E-005  5.668992981834905E-005  5.809017108486177E-005 
 5.952499831065749E-005  6.099526576893091E-005  6.250184883342307E-005  6.404564449961019E-005 
 6.562757191874900E-005  6.724857294514410E-005  6.890961269688917E-005  7.061168013050134E-005 
 7.235578862972466E-005  7.414297660887828E-005  7.597430813111782E-005  7.785087354195657E-005 
 7.977379011844388E-005  8.174420273436964E-005  8.376328454190671E-005  8.583223767009195E-005 
 8.795229394054316E-005  9.012471560087575E-005  9.235079607621686E-005  9.463186073929994E-005 
 9.696926769955950E-005  9.936440861173845E-005  1.018187095044498E-004  1.043336316292096E-004 
 1.069106723304494E-004  1.095513659370120E-004  1.122572846756567E-004  1.150300396071462E-004 
 1.178712815854429E-004  1.207827022406020E-004  1.237660349859452E-004  1.268230560500981E-004 
 1.299555855345344E-004  1.331654884972391E-004  1.364546760631198E-004  1.398251065618787E-004 
 1.432787866939587E-004  1.468177727252984E-004  1.504441717116137E-004  1.541601427528908E-004 
 1.579678982788875E-004  1.618697053663750E-004  1.658678870889256E-004  1.699648239000223E-004 
 1.741629550503510E-004  1.784647800400961E-004  1.828728601070849E-004  1.873898197517316E-004 
 1.920183482995988E-004  1.967612015025988E-004  2.016212031797120E-004  2.066012468982526E-004 
 2.117042976966384E-004  2.169333938497455E-004  2.222916486778346E-004  2.277822524001772E-004 
 2.334084740344615E-004  2.391736633431131E-004  2.450812528276956E-004  2.511347597725424E-004 
 2.573377883389087E-004  2.636940317108905E-004  2.702072742941469E-004  2.768813939692057E-004 
 2.837203644002532E-004  2.907282574009238E-004  2.979092453587448E-004  3.052676037190949E-004 
 3.128077135309651E-004  3.205340640551613E-004  3.284512554373359E-004  3.365640014466309E-004 
 3.448771322823727E-004  3.533955974497451E-004  3.621244687067588E-004  3.710689430838106E-004 
 3.802343459779799E-004  3.896261343236465E-004  3.992498998414344E-004  4.091113723675021E-004 
 4.192164232649893E-004  4.295710689196414E-004  4.401814743219577E-004  4.510539567377143E-004 
 4.621949894691345E-004  4.736112057090207E-004  4.853094024900233E-004  4.972965447315321E-004 
 5.095797693863886E-004  5.221663896902483E-004  5.350638995155942E-004  5.482799778336216E-004 
 5.618224932861185E-004  5.756995088702928E-004  5.899192867393767E-004  6.044902931218384E-004 
 6.194212033619608E-004  6.347209070849797E-004  6.503985134899798E-004  6.664633567731854E-004 
 6.829250016854979E-004  6.997932492271118E-004  7.170781424830411E-004  7.347899726023595E-004 
 7.529392849256469E-004  7.715368852633002E-004  7.905938463292953E-004  8.101215143336449E-004 
 8.301315157376800E-004  8.506357641763937E-004  8.716464675515627E-004  8.931761353000822E-004 
 9.152375858419835E-004  9.378439542123028E-004  9.610086998813433E-004  9.847456147684030E-004 
 1.009068831453191E-003  1.033992831590077E-003  1.059532454530359E-003  1.085702906157259E-003 
 1.112519767939336E-003  1.139999006207442E-003  1.168156981660773E-003  1.197010459107793E-003 
 1.226576617447734E-003  1.256873059898696E-003  1.287917824478196E-003  1.319729394742804E-003 
 1.352326710792959E-003  1.385729180549544E-003  1.419956691309114E-003  1.455029621584450E-003 
 1.490968853237601E-003  1.527795783912552E-003  1.565532339775212E-003  1.604200988567641E-003 
 1.643824752985271E-003  1.684427224384002E-003  1.726032576826287E-003  1.768665581473899E-003 
 1.812351621336293E-003  1.857116706383310E-003  1.902987489030981E-003  1.949991280010043E-003 
 1.998156064626288E-003  2.047510519422567E-003  2.098084029252294E-003  2.149906704774818E-003 
 2.203009400382758E-003  2.257423732572210E-003  2.313182098766750E-003  2.370317696606301E-003 
 2.428864543712476E-003  2.488857497942054E-003  2.550332278141419E-003  2.613325485411429E-003 
 2.677874624901081E-003  2.744018128136211E-003  2.811795375901218E-003  2.881246721685895E-003 
 2.952413515711507E-003  3.025338129549545E-003  3.100063981349502E-003  3.176635561688847E-003 
 3.255098460062511E-003  3.335499392026061E-003  3.417886227009129E-003  3.502308016816184E-003 
 3.588815024831492E-003  3.677458755944846E-003  3.768291987216850E-003  3.861368799301104E-003 
 3.956744608643745E-003  4.054476200477230E-003  4.154621762629056E-003  4.257240920165942E-003 
 4.362394770893956E-003  4.470145921735087E-003  4.580558526001972E-003  4.693698321594218E-003 
 4.809632670137521E-003  4.928430597090012E-003  5.050162832838245E-003  5.174901854809213E-003 
 5.302721930623009E-003  5.433699162309325E-003  5.567911531618531E-003  5.705438946449534E-003 
 5.846363288426874E-003  5.990768461650965E-003  6.138740442653697E-003  6.290367331587190E-003 
 6.445739404677463E-003  6.604949167972991E-003  6.768091412421829E-003  6.935263270308803E-003 
 7.106564273085435E-003  7.282096410630432E-003  7.461964191973207E-003  7.646274707514799E-003 
 7.835137692790392E-003  8.028665593802461E-003  8.226973633969408E-003  8.430179882728303E-003 
 8.638405325831678E-003  8.851773937379896E-003  9.070412753633015E-003  9.294451948647744E-003 
 9.524024911779292E-003  9.759268327100319E-003  1.000032225477968E-002  1.024733021447271E-002 
 1.050043927077032E-002  1.075980012075831E-002  1.102556718374104E-002  1.129789869317951E-002 
 1.157695679090104E-002  1.186290762363617E-002  1.215592144194000E-002  1.245617270155585E-002 
 1.276384016728438E-002  1.307910701941618E-002  1.340216096279579E-002  1.373319433857685E-002 
 1.407240423873984E-002  1.441999262343670E-002  1.477616644123546E-002  1.514113775233403E-002 
 1.551512385481669E-002  1.589834741403059E-002  1.629103659515719E-002  1.669342519905758E-002 
 1.710575280147441E-002  1.752826489567065E-002  1.796121303859372E-002  1.840485500064709E-002 
 1.885945491916315E-002  1.932528345566634E-002  1.980261795702146E-002  2.029174262055965E-002 
 2.079294866328750E-002  2.130653449527087E-002  2.183280589730394E-002  2.237207620296751E-002 
 2.292466648518070E-002  2.349090574736465E-002  2.407113111932446E-002  2.466568805797155E-002 
 2.527493055300462E-002  2.589922133766248E-002  2.653893210470283E-002  2.719444372768972E-002 
 2.786614648776362E-002  2.855444030601133E-002  2.925973498156985E-002  2.998245043561544E-002 
 3.072301696137468E-002  3.148187548032080E-002  3.225947780468474E-002  3.305628690645907E-002 
 3.387277719304833E-002  3.470943478971727E-002  3.556675782902231E-002  3.644525674739950E-002 
 3.734545458906017E-002  3.826788731741163E-002  3.921310413415156E-002  4.018166780626548E-002 
 4.117415500107873E-002  4.219115662960682E-002  4.323327819835778E-002  4.430114016985767E-002 
 4.539537833205259E-002  4.651664417685349E-002  4.766560528802107E-002  4.884294573863512E-002 
 5.004936649837988E-002  5.128558585088940E-002  5.255233982140687E-002  5.385038261499679E-002 
 5.518048706558584E-002  5.654344509610573E-002  5.794006818997950E-002  5.937118787427348E-002 
 6.083765621476855E-002  6.234034632327275E-002  6.388015287745610E-002  6.545799265352935E-002 
 6.707480507207189E-002  6.873155275735281E-002  7.042922211045981E-002  7.216882389658744E-002 
 7.395139384683343E-002  7.577799327484977E-002  7.764970970873870E-002  7.956765753854522E-002 
 8.153297867974615E-002  8.354684325313590E-002  8.561045028148953E-002  8.772502840344254E-002 
 8.989183660500673E-002  9.211216496914937E-002  9.438733544388701E-002  9.671870262935266E-002 
 9.910765458429734E-002  1.015556136525290E-001  1.040640373097473E-001  1.066344190312983E-001 
 1.092682891813703E-001  1.119672159241512E-001  1.147328061574780E-001  1.175667064695663E-001 
 1.204706041193657E-001  1.234462280411133E-001  1.264953498737279E-001  1.296197850156102E-001 
 1.328213937054964E-001  1.361020821300206E-001  1.394638035586317E-001  1.429085595065305E-001 
 1.464384009263413E-001  1.500554294292231E-001  1.537617985361235E-001  1.575597149599675E-001 
 1.614514399194772E-001  1.654392904854892E-001  1.695256409604798E-001  1.737129242922051E-001 
 1.780036335222214E-001  1.824003232702210E-001  1.869056112549964E-001  1.915221798529933E-001 
 1.962527776953633E-001  2.011002213044376E-001  2.060673967706581E-001  2.111572614708930E-001 
 2.163728458292229E-001  2.217172551212051E-001  2.271936713226993E-001  2.328053550043701E-001 
 2.385556472729786E-001  2.444479717606197E-001  2.504858366631153E-001  2.566728368286842E-001 
 2.630126558983581E-001  2.695090684990535E-001  2.761659424909723E-001  2.829872412704869E-001 
 2.899770261298782E-001  2.971394586752911E-001  3.044788033045672E-001  3.119994297461995E-001 
 3.197058156609217E-001  3.276025493077371E-001  3.356943322756571E-001  3.439859822828559E-001 
 3.524824360452437E-001  3.611887522155541E-001  3.701101143952916E-001  3.792518342208532E-001 
 3.886193545260952E-001  3.982182525829066E-001  4.080542434216928E-001  4.181331832342068E-001 
 4.284610728600993E-001  4.390440613597446E-001  4.498884496753213E-001  4.610006943822959E-001 
 4.723874115335507E-001  4.840553805984291E-001  4.960115484992085E-001  5.082630337471495E-001 
 5.208171306806835E-001  5.336813138084938E-001  5.468632422595687E-001  5.603707643433927E-001 
 5.742119222226710E-001  5.883949567015645E-001  6.029283121320913E-001  6.178206414417481E-001 
 6.330808112853752E-001  6.487179073241214E-001  6.647412396350204E-001  6.811603482540109E-001 
 6.979850088558887E-001  7.152252385746308E-001  7.328913019674120E-001  7.509937171260189E-001 
 7.695432619390332E-001  7.885509805089278E-001  8.080281897274951E-001  8.279864860137540E-001 
 8.484377522182879E-001  8.693941646980894E-001  8.908682005661330E-001  9.128726451201162E-001 
 9.354205994545886E-001  9.585254882611083E-001  9.822010678211580E-001  1.006461434196355E+000 
 1.031321031620991E+000  1.056794661102035E+000  1.082897489231257E+000  1.109645057215254E+000 
 1.137053290128477E+000  1.165138506394658E+000  1.193917427502603E+000  1.223407187961907E+000 
 1.253625345504569E+000  1.284589891538539E+000  1.316319261859537E+000  1.348832347627467E+000 
 1.382148506613878E+000  1.416287574727238E+000  1.451269877823003E+000  1.487116243805217E+000 
 1.523848015027208E+000  1.561487060998371E+000  1.600055791405045E+000  1.639577169452758E+000 
 1.680074725538221E+000  1.721572571259033E+000  1.764095413769132E+000  1.807668570489224E+000 
 1.852317984180295E+000  1.898070238389549E+000  1.944952573277785E+000
    </PP_RAB>
  </PP_MESH>