<UPF version="2.0.1">
  <PP_INFO>
    Generated using FHI98PP, converted with fhi2upf.x v.5.0.1
    Author: Abinit web site
    Generation date: 10-Jul-2012, PG
    Pseudopotential type: SL
    Element: Ru
    Functional: SLA-PW

    Suggested minimum cutoff for wavefunctions:   0. Ry
    Suggested minimum cutoff for charge density:   0. Ry
    The Pseudo was generated with a Non-Relativistic Calculation
    L component and cutoff radius for Local Potential:  1   0.0000

    Valence configuration: 
    nl pn  l   occ       Rcut    Rcut US       E pseu
    5s  5  0  2.00      0.000      0.000     0.000000
    5p  5  1  0.00      0.000      0.000     0.000000
    4d  4  2  6.00      0.000      0.000     0.000000
    4f  4  3  0.00      0.000      0.000     0.000000

    Generation configuration: not available.
    Comment:
    ruthenium, fhi98PP : Trouiller-Martins-type, LDA Ceperley/Alder Perdew/Wang (199
  </PP_INFO>
  <!--                               -->
  <!-- END OF HUMAN READABLE SECTION -->
  <!--                               -->
  <PP_HEADER generated="Generated using FHI98PP, converted with fhi2upf.x v.5.0.1"
             author="Abinit web site"
             date="10-Jul-2012, PG"
             comment="ruthenium, fhi98PP : Trouiller-Martins-type, LDA Ceperley/Alder Perdew/Wang (199"
             element="Ru"
             pseudo_type="SL"
             relativistic="no"
             is_ultrasoft="F"
             is_paw="F"
             is_coulomb="F"
             has_so="F"
             has_wfc="F"
             has_gipaw="F"
             paw_as_gipaw="F"
             core_correction="F"
             functional="SLA-PW"
             z_valence="8.000000000000000E+000"
             total_psenergy="0.000000000000000E+000"
             wfc_cutoff="0.000000000000000E+000"
             rho_cutoff="0.000000000000000E+000"
             l_max="3"
             l_max_rho="0"
             l_local="1"
             mesh_size="543"
             number_of_wfc="4"
             number_of_proj="3"/>
  <PP_MESH dx="2.439988682353512E-002" mesh="543" xmin="-5.075173815233859E+000" rmax="7.867891545742000E+001"
zmesh="4.400000000000000E+001">
    <PP_R type="real" size="543" columns="4">
 1.420454545454500E-004  1.455539772727300E-004  1.491491605113600E-004  1.528331447759900E-004 
 1.566081234519600E-004  1.604763441012200E-004  1.644401098005300E-004  1.685017805126000E-004 
 1.726637744912600E-004  1.769285697211900E-004  1.812987053933100E-004  1.857767834165200E-004 
 1.903654699669100E-004  1.950674970750900E-004  1.998856642528500E-004  2.048228401598900E-004 
 2.098819643118400E-004  2.150660488303400E-004  2.203781802364500E-004  2.258215212882900E-004 
 2.313993128641100E-004  2.371148758918600E-004  2.429716133263900E-004  2.489730121755500E-004 
 2.551226455762800E-004  2.614241749220200E-004  2.678813520425900E-004  2.744980214380500E-004 
 2.812781225675600E-004  2.882256921949800E-004  2.953448667922000E-004  3.026398850019700E-004 
 3.101150901615200E-004  3.177749328885000E-004  3.256239737308500E-004  3.336668858820000E-004 
 3.419084579632900E-004  3.503535968749800E-004  3.590073307177900E-004  3.678748117865200E-004 
 3.769613196376500E-004  3.862722642327000E-004  3.958131891592500E-004  4.055897749314800E-004 
 4.156078423722900E-004  4.258733560788800E-004  4.363924279740300E-004  4.471713209449900E-004 
 4.582164525723300E-004  4.695343989508700E-004  4.811318986049600E-004  4.930158565005000E-004 
 5.051933481560600E-004  5.176716238555200E-004  5.304581129647500E-004  5.435604283549800E-004 
 5.569863709353400E-004  5.707439342974500E-004  5.848413094745899E-004  5.992868898186200E-004 
 6.140892759971400E-004  6.292572811142601E-004  6.447999359577900E-004  6.607264943759400E-004 
 6.770464387870300E-004  6.937694858250700E-004  7.109055921249500E-004  7.284649602504300E-004 
 7.464580447686200E-004  7.648955584744100E-004  7.837884787687200E-004  8.031480541943100E-004 
 8.229858111329100E-004  8.433135606678900E-004  8.641434056163900E-004  8.854877477351100E-004 
 9.073592951041700E-004  9.297710696932500E-004  9.527364151146700E-004  9.762690045680000E-004 
 1.000382848980800E-003  1.025092305350700E-003  1.050412085292800E-003  1.076357263799500E-003 
 1.102943288215400E-003  1.130185987434300E-003  1.158101581323900E-003  1.186706690382600E-003 
 1.216018345635100E-003  1.246053998772300E-003  1.276831532542000E-003  1.308369271395700E-003 
 1.340685992399200E-003  1.373800936411500E-003  1.407733819540800E-003  1.442504844883500E-003 
 1.478134714552100E-003  1.514644642001600E-003  1.552056364659000E-003  1.590392156866100E-003 
 1.629674843140700E-003  1.669927811766200E-003  1.711175028716900E-003  1.753441051926200E-003 
 1.796751045908800E-003  1.841130796742700E-003  1.886606727422200E-003  1.933205913589600E-003 
 1.980956099655200E-003  2.029885715316700E-003  2.080023892485000E-003  2.131400482629400E-003 
 2.184046074550400E-003  2.237992012591800E-003  2.293270415302800E-003  2.349914194560800E-003 
 2.407957075166400E-003  2.467433614923000E-003  2.528379225211600E-003  2.590830192074400E-003 
 2.654823697818600E-003  2.720397843154700E-003  2.787591669880600E-003  2.856445184126700E-003 
 2.926999380174600E-003  2.999296264864900E-003  3.073378882607100E-003  3.149291341007500E-003 
 3.227078837130400E-003  3.306787684407500E-003  3.388465340212300E-003  3.472160434115600E-003 
 3.557922796838200E-003  3.645803489920200E-003  3.735854836121200E-003  3.828130450573400E-003 
 3.922685272702500E-003  4.019575598938300E-003  4.118859116232100E-003  4.220594936403000E-003 
 4.324843631332200E-003  4.431667269026100E-003  4.541129450571000E-003  4.653295348000100E-003 
 4.768231743095700E-003  4.886007067150200E-003  5.006691441708800E-003  5.130356720319000E-003 
 5.257076531310900E-003  5.386926321634200E-003  5.519983401778600E-003  5.656326991802500E-003 
 5.796038268500100E-003  5.939200413732000E-003  6.085898663951200E-003  6.236220360950800E-003 
 6.390255003866300E-003  6.548094302461800E-003  6.709832231732600E-003  6.875565087856400E-003 
 7.045391545526400E-003  7.219412716700900E-003  7.397732210803400E-003  7.580456196410300E-003 
 7.767693464461600E-003  7.959555493033800E-003  8.156156513711699E-003  8.357613579600401E-003 
 8.564046635016601E-003  8.775578586901501E-003  8.992335377997899E-003  9.214446061834500E-003 
 9.442042879561800E-003  9.675261338687000E-003  9.914240293752499E-003  1.015912202900800E-002 
 1.041005234312500E-002  1.066718063600000E-002  1.093065999770900E-002  1.120064729965300E-002 
 1.147730328795400E-002  1.176079267916600E-002  1.205128425834200E-002  1.234895097952300E-002 
 1.265397006871700E-002  1.296652312941400E-002  1.328679625071100E-002  1.361498011810300E-002 
 1.395127012702100E-002  1.429586649915800E-002  1.464897440168700E-002  1.501080406940900E-002 
 1.538157092992300E-002  1.576149573189200E-002  1.615080467647000E-002  1.654972955197900E-002 
 1.695850787191300E-002  1.737738301634900E-002  1.780660437685300E-002  1.824642750496100E-002 
 1.869711426433400E-002  1.915893298666300E-002  1.963215863143300E-002  2.011707294963000E-002 
 2.061396465148600E-002  2.112312957837700E-002  2.164487087896300E-002  2.217949918967400E-002 
 2.272733281965900E-002  2.328869794030400E-002  2.386392877943000E-002  2.445336782028100E-002 
 2.505736600544200E-002  2.567628294577700E-002  2.631048713453800E-002  2.696035616676100E-002 
 2.762627696408000E-002  2.830864600509200E-002  2.900786956141800E-002  2.972436393958500E-002 
 3.045855572889300E-002  3.121088205539700E-002  3.198179084216500E-002  3.277174107596600E-002 
 3.358120308054300E-002  3.441065879663200E-002  3.526060206890900E-002  3.613153894001100E-002 
 3.702398795182900E-002  3.793848045423900E-002  3.887556092145900E-002  3.983578727621900E-002 
 4.081973122194200E-002  4.182797858312400E-002  4.286112965412700E-002  4.391979955658400E-002 
 4.500461860563100E-002  4.611623268519100E-002  4.725530363251500E-002  4.842250963223800E-002 
 4.961854562015400E-002  5.084412369697200E-002  5.209997355228700E-002  5.338684289902900E-002 
 5.470549791863500E-002  5.605672371722500E-002  5.744132479304000E-002  5.886012551542800E-002 
 6.031397061566000E-002  6.180372568986600E-002  6.333027771440600E-002  6.489453557395200E-002 
 6.649743060262800E-002  6.813991713851300E-002  6.982297309183499E-002  7.154760052720301E-002 
 7.331482626022499E-002  7.512570246885200E-002  7.698130731983301E-002  7.888274561063301E-002 
 8.083114942721600E-002  8.282767881806800E-002  8.487352248487399E-002  8.696989849025100E-002 
 8.911805498295999E-002  9.131927094103900E-002  9.357485693328201E-002  9.588615589953500E-002 
 9.825454395025300E-002  1.006814311858200E-001  1.031682625361100E-001  1.057165186207600E-001 
 1.083277166306900E-001  1.110034112314700E-001  1.137451954888800E-001  1.165547018174600E-001 
 1.194336029523500E-001  1.223836129452700E-001  1.254064881850200E-001  1.285040284431900E-001 
 1.316780779457400E-001  1.349305264710000E-001  1.382633104748300E-001  1.416784142435600E-001 
 1.451778710753800E-001  1.487637644909400E-001  1.524382294738600E-001  1.562034537418700E-001 
 1.600616790492900E-001  1.640152025218100E-001  1.680663780241000E-001  1.722176175612900E-001 
 1.764713927150600E-001  1.808302361151200E-001  1.852967429471600E-001  1.898735724979600E-001 
 1.945634497386600E-001  1.993691669472000E-001  2.042935853708000E-001  2.093396369294600E-001 
 2.145103259616200E-001  2.198087310128700E-001  2.252380066688900E-001  2.308013854336100E-001 
 2.365021796538200E-001  2.423437834912700E-001  2.483296749435000E-001  2.544634179146000E-001 
 2.607486643371000E-001  2.671891563462200E-001  2.737887285079700E-001  2.805513101021200E-001 
 2.874809274616400E-001  2.945817063699500E-001  3.018578745172800E-001  3.093137640178600E-001 
 3.169538139891000E-001  3.247825731946300E-001  3.328047027525400E-001  3.410249789105300E-001 
 3.494482958896200E-001  3.580796687980900E-001  3.669242366174000E-001  3.759872652618500E-001 
 3.852741507138200E-001  3.947904222364500E-001  4.045417456656900E-001  4.145339267836300E-001 
 4.247729147751900E-001  4.352648057701400E-001  4.460158464726600E-001  4.570324378805300E-001 
 4.683211390961800E-001  4.798886712318600E-001  4.917419214112900E-001  5.038879468701500E-001 
 5.163339791578400E-001  5.290874284430400E-001  5.421558879255800E-001  5.555471383573400E-001 
 5.692691526747700E-001  5.833301007458300E-001  5.977383542342600E-001  6.125024915838400E-001 
 6.276313031259600E-001  6.431337963131700E-001  6.590192010821100E-001  6.752969753488400E-001 
 6.919768106399500E-001  7.090686378627600E-001  7.265826332179700E-001  7.445292242584600E-001 
 7.629190960976400E-001  7.817631977712500E-001  8.010727487562000E-001  8.208592456504800E-001 
 8.411344690180500E-001  8.619104904027900E-001  8.831996795157400E-001  9.050147115997800E-001 
 9.273685749762900E-001  9.502745787782100E-001  9.737463608740300E-001  9.977978959876200E-001 
 1.022443504018500E+000  1.047697858567800E+000  1.073575995674400E+000  1.100093322767600E+000 
 1.127265627839900E+000  1.155109088847600E+000  1.183640283342100E+000  1.212876198340600E+000 
 1.242834240439700E+000  1.273532246178500E+000  1.304988492659100E+000  1.337221708427800E+000 
 1.370251084626000E+000  1.404096286416200E+000  1.438777464690700E+000  1.474315268068600E+000 
 1.510730855189900E+000  1.548045907313100E+000  1.586282641223700E+000  1.625463822461900E+000 
 1.665612778876700E+000  1.706753414515000E+000  1.748910223853500E+000  1.792108306382700E+000 
 1.836373381550300E+000  1.881731804074600E+000  1.928210579635300E+000  1.975837380952300E+000 
 2.024640564261800E+000  2.074649186199000E+000  2.125893021098200E+000  2.178402578719300E+000 
 2.232209122413600E+000  2.287344687737300E+000  2.343842101524400E+000  2.401735001432000E+000 
 2.461057855967400E+000  2.521845985009800E+000  2.584135580839500E+000  2.647963729686300E+000 
 2.713368433809500E+000  2.780388634124600E+000  2.849064233387500E+000  2.919436119952200E+000 
 2.991546192115000E+000  3.065437383060200E+000  3.141153686421800E+000  3.218740182476400E+000 
 3.298243064983600E+000  3.379709668688700E+000  3.463188497505300E+000  3.548729253393700E+000 
 3.636382865952500E+000  3.726201522741500E+000  3.818238700353200E+000  3.912549196252000E+000 
 4.009189161399400E+000  4.108216133686000E+000  4.209689072188000E+000  4.313668392271100E+000 
 4.420216001560100E+000  4.529395336798700E+000  4.641271401617600E+000  4.755910805237600E+000 
 4.873381802126900E+000  4.993754332639500E+000  5.117100064655700E+000  5.243492436252700E+000 
 5.373006699428100E+000  5.505719964904000E+000  5.641711248037100E+000  5.781061515863600E+000 
 5.923853735305400E+000  6.070172922567500E+000  6.220106193754900E+000  6.373742816740600E+000 
 6.531174264314100E+000  6.692494268642700E+000  6.857798877078200E+000  7.027186509342000E+000 
 7.200758016122800E+000  7.378616739121000E+000  7.560868572577300E+000  7.747622026319900E+000 
 7.938988290370000E+000  8.135081301142201E+000  8.336017809280399E+000  8.541917449169601E+000 
 8.752902810164100E+000  8.969099509575100E+000  9.190636267461700E+000  9.417644983268000E+000 
 9.650260814354700E+000  9.888622256469199E+000  1.013287122620400E+001  1.038315314549100E+001 
 1.063961702818500E+001  1.090241556878100E+001  1.117170523333000E+001  1.144764635259300E+001 
 1.173040321750200E+001  1.202014417697500E+001  1.231704173814600E+001  1.262127266907800E+001 
 1.293301810400400E+001  1.325246365117300E+001  1.357979950335700E+001  1.391522055109000E+001 
 1.425892649870200E+001  1.461112198322000E+001  1.497201669620500E+001  1.534182550860200E+001 
 1.572076859866400E+001  1.610907158305100E+001  1.650696565115300E+001  1.691468770273600E+001 
 1.733248048899400E+001  1.776059275707200E+001  1.819927939817100E+001  1.864880159930600E+001 
 1.910942699880900E+001  1.958142984568000E+001  2.006509116286800E+001  2.056069891459100E+001 
 2.106854817778100E+001  2.158894131777200E+001  2.212218816832100E+001  2.266860621607900E+001 
 2.322852078961600E+001  2.380226525312000E+001  2.439018120487200E+001  2.499261868063200E+001 
 2.560993636204400E+001  2.624250179018600E+001  2.689069158440400E+001  2.755489166653800E+001 
 2.823549749070200E+001  2.893291427872200E+001  2.964755726140700E+001  3.037985192576300E+001 
 3.113023426833000E+001  3.189915105475800E+001  3.268706008581000E+001  3.349443046993000E+001 
 3.432174290253700E+001  3.516948995222900E+001  3.603817635405000E+001  3.692831930999500E+001 
 3.784044879695100E+001  3.877510788223600E+001  3.973285304692700E+001  4.071425451718600E+001 
 4.171989660376100E+001  4.275037804987400E+001  4.380631238770600E+001  4.488832830368200E+001 
 4.599707001278300E+001  4.713319764209900E+001  4.829738762385900E+001  4.949033309816800E+001 
 5.071274432569300E+001  5.196534911053700E+001  5.324889323356700E+001  5.456414089643700E+001 
 5.591187517657900E+001  5.729289849344000E+001  5.870803308622800E+001  6.015812150345800E+001 
 6.164402710459300E+001  6.316663457407700E+001  6.472685044805600E+001  6.632560365412300E+001 
 6.796384606437999E+001  6.964255306216999E+001  7.136272412280600E+001  7.312538340863900E+001 
 7.493158037883300E+001  7.678239041419000E+001  7.867891545742000E+001
    </PP_R>
    <PP_RAB type="real" size="543" columns="4">
 3.465893014706583E-006  3.551500572170015E-006  3.639222636302458E-006  3.729111435419114E-006 
 3.821220487874041E-006  3.915604633924446E-006  4.012320068382620E-006  4.111424374071595E-006 
 4.212976556111134E-006  4.317037077046979E-006  4.423667892850201E-006  4.532932489803484E-006 
 4.644895922301678E-006  4.759624851582465E-006  4.877187585416680E-006  4.997654118776340E-006 
 5.121096175510133E-006  5.247587251045174E-006  5.377202656146004E-006  5.510019561752803E-006 
 5.646117044928078E-006  5.785576135937961E-006  5.928479866495654E-006  6.074913319198051E-006 
 6.224963678182095E-006  6.378720281033337E-006  6.536274671974764E-006  6.697720656372737E-006 
 6.863154356584904E-006  7.032674269192582E-006  7.206381323641736E-006  7.384378942335752E-006 
 7.566773102211477E-006  7.753672397835868E-006  7.945188106062513E-006  8.141434252282208E-006 
 8.342527678313692E-006  8.548588111967961E-006  8.759738238333520E-006  8.976103772820373E-006 
 9.197813536009108E-006  9.424999530348534E-006  9.657797018748200E-006  9.896344605111195E-006 
 1.014078431685750E-005  1.039126168948374E-005  1.064792585321403E-005  1.091092962178846E-005 
 1.118042958344660E-005  1.145658619415782E-005  1.173956387315360E-005  1.202953110082043E-005 
 1.232666051901064E-005  1.263112903383033E-005  1.294311792096591E-005  1.326281293361378E-005 
 1.359040441307385E-005  1.392608740207695E-005  1.427006176090807E-005  1.462253228640269E-005 
 1.498370883387684E-005  1.535380644207337E-005  1.573304546119277E-005  1.612165168408405E-005 
 1.651985648068103E-005  1.692789693575386E-005  1.734601599006700E-005  1.777446258502150E-005 
 1.821349181087164E-005  1.866336505860029E-005  1.912435017554753E-005  1.959672162488362E-005 
 2.008076064901825E-005  2.057675543704894E-005  2.108500129634412E-005  2.160580082836370E-005 
 2.213946410882435E-005  2.268630887231248E-005  2.324666070145852E-005  2.382085322078449E-005 
 2.440922829533715E-005  2.501213623423379E-005  2.562993599921784E-005  2.626299541839774E-005 
 2.691169140523344E-005  2.757641018294221E-005  2.825754751446021E-005  2.895550893806738E-005 
 2.967071000883885E-005  3.040357654605749E-005  3.115454488674570E-005  3.192406214544619E-005 
 3.271258648043935E-005  3.352058736650718E-005  3.434854587445834E-005  3.519695495755848E-005 
 3.606631974500963E-005  3.695715784271291E-005  3.786999964142695E-005  3.880538863257075E-005 
 3.976388173179543E-005  4.074604961056894E-005  4.175247703595182E-005  4.278376321873965E-005 
 4.384052217024308E-005  4.492338306784693E-005  4.603299062962166E-005  4.717000549817505E-005 
 4.833510463397845E-005  4.952898171843811E-005  5.075234756688298E-005  5.200593055178549E-005 
 5.329047703641591E-005  5.460675181921550E-005  5.595553858914971E-005  5.733764039230221E-005 
 5.875388010999081E-005  6.020510094870734E-005  6.169216694214046E-005  6.321596346561311E-005 
 6.477739776321284E-005  6.637739948796372E-005  6.801692125531592E-005  6.969693921032342E-005 
 7.141845360881769E-005  7.318248941295517E-005  7.499009690145608E-005  7.684235229492215E-005 
 7.874035839660709E-005  8.068524524900278E-005  8.267817080665155E-005  8.472032162557722E-005 
 8.681291356972762E-005  8.895719253490224E-005  9.115443519051362E-005  9.340594973971948E-005 
 9.571307669828901E-005  9.807718969273792E-005  1.004996962781491E-004  1.029820387762186E-004 
 1.055256951339923E-004  1.081321798038018E-004  1.108030446449546E-004  1.135398798476849E-004 
 1.163443148799227E-004  1.192180194574576E-004  1.221627045380566E-004  1.251801233401464E-004 
 1.282720723866486E-004  1.314403925745969E-004  1.346869702711902E-004  1.380137384368879E-004 
 1.414226777762809E-004  1.449158179173538E-004  1.484952386199129E-004  1.521630710138249E-004 
 1.559214988678667E-004  1.597727598899031E-004  1.637191470591835E-004  1.677630099915455E-004 
 1.719067563383353E-004  1.761528532198922E-004  1.805038286944232E-004  1.849622732631768E-004 
 1.895308414127765E-004  1.942122531956720E-004  1.990092958496042E-004  2.039248254570900E-004 
 2.089617686458819E-004  2.141231243314349E-004  2.194119655024197E-004  2.248314410503307E-004 
 2.303847776442736E-004  2.360752816520877E-004  2.419063411088926E-004  2.478814277342777E-004 
 2.540040989993266E-004  2.602780002446054E-004  2.667068668506422E-004  2.732945264618675E-004 
 2.800449012654652E-004  2.869620103267108E-004  2.940499719817952E-004  3.013130062897444E-004 
 3.087554375450957E-004  3.163816968524520E-004  3.241963247647192E-004  3.322039739863940E-004 
 3.404094121438788E-004  3.488175246238224E-004  3.574333174820259E-004  3.662619204238401E-004 
 3.753085898582991E-004  3.845787120277966E-004  3.940778062148898E-004  4.038115280284022E-004 
 4.137856727707067E-004  4.240061788881370E-004  4.344791315066784E-004  4.452107660548867E-004 
 4.562074719764537E-004  4.674757965342710E-004  4.790224487086534E-004  4.908543031917718E-004 
 5.029784044806119E-004  5.154019710712659E-004  5.281323997567283E-004  5.411772700307345E-004 
 5.545443486004950E-004  5.682415940109131E-004  5.822771613829946E-004  5.966594072691321E-004 
 6.113968946286811E-004  6.264983979260238E-004  6.419729083548040E-004  6.578296391911656E-004 
 6.740780312791875E-004  6.907277586517644E-004  7.077887342904686E-004  7.252711160274425E-004 
 7.431853125933265E-004  7.615419898143900E-004  7.803520769627980E-004  7.996267732637675E-004 
 8.193775545633982E-004  8.396161801611041E-004  8.603546998110879E-004  8.816054608964205E-004 
 9.033811157805555E-004  9.256946293403308E-004  9.485592866850444E-004  9.719887010661639E-004 
 9.959968219825077E-004  1.020597943485477E-003  1.045806712689564E-003  1.071638138492997E-003 
 1.098107600513759E-003  1.125230858246472E-003  1.153024060445154E-003  1.181503754738147E-003 
 1.210686897480172E-003  1.240590863847937E-003  1.271233458184976E-003  1.302632924602157E-003 
 1.334807957839830E-003  1.367777714398467E-003  1.401561823944098E-003  1.436180400995515E-003 
 1.471654056900127E-003  1.508003912105541E-003  1.545251608734555E-003  1.583419323470303E-003 
 1.622529780760004E-003  1.662606266344778E-003  1.703672641123512E-003  1.745753355359255E-003 
 1.788873463236631E-003  1.833058637778562E-003  1.878335186131701E-003  1.924730065229157E-003 
 1.972270897840326E-003  2.020985989016977E-003  2.070904342945689E-003  2.122055680216462E-003 
 2.174470455517804E-003  2.228179875769091E-003  2.283215918700572E-003  2.339611351892498E-003 
 2.397399752284231E-003  2.456615526165547E-003  2.517293929661843E-003  2.579471089724687E-003 
 2.643184025640820E-003  2.708470671074195E-003  2.775369896649550E-003  2.843921533096907E-003 
 2.914166394964370E-003  2.986146304919916E-003  3.059904118651483E-003  3.135483750382174E-003 
 3.212930199016692E-003  3.292289574932410E-003  3.373609127433150E-003  3.456937272880791E-003 
 3.542323623521045E-003  3.629819017021969E-003  3.719475546742259E-003  3.811346592746932E-003 
 3.905486853587679E-003  4.001952378871357E-003  4.100800602629510E-003  4.202090377514331E-003 
 4.305882009839084E-003  4.412237295482061E-003  4.521219556680384E-003  4.632893679730515E-003 
 4.747326153619868E-003  4.864585109614159E-003  4.984740361821730E-003  5.107863448758757E-003 
 5.234027675943156E-003  5.363308159538902E-003  5.495781871079564E-003  5.631527683295192E-003 
 5.770626417072579E-003  5.913160889574287E-003  6.059215963546666E-003  6.208878597846159E-003 
 6.362237899213188E-003  6.519385175323598E-003  6.680413989154052E-003  6.845420214686233E-003 
 7.014502093988926E-003  7.187760295710635E-003  7.365297975014499E-003  7.547220834997433E-003 
 7.733637189621843E-003  7.924658028205484E-003  8.120397081502223E-003  8.320970889415384E-003 
 8.526498870383941E-003  8.737103392482336E-003  8.952909846276580E-003  9.174046719479618E-003 
 9.400645673450820E-003  9.632841621585023E-003  9.870772809638165E-003  1.011458089803617E-002 
 1.036441104621777E-002  1.062041199905941E-002  1.088273617543612E-002  1.115153975896928E-002 
 1.142698279101584E-002  1.170922926595404E-002  1.199844722882318E-002  1.229480887537514E-002 
 1.259849065459684E-002  1.290967337376541E-002  1.322854230609734E-002  1.355528730105790E-002 
 1.389010289739412E-002  1.423318843895959E-002  1.458474819340209E-002  1.494499147377897E-002 
 1.531413276318129E-002  1.569239184243184E-002  1.607999392094002E-002  1.647716977078728E-002 
 1.688415586412557E-002  1.730119451396955E-002  1.772853401846460E-002  1.816642880872082E-002 
 1.861513960029613E-002  1.907493354842341E-002  1.954608440706947E-002  2.002887269192413E-002 
 2.052358584741473E-002  2.103051841784573E-002  2.154997222276655E-002  2.208225653666891E-002 
 2.262768827312452E-002  2.318659217347083E-002  2.375930100015552E-002  2.434615573485940E-002 
 2.494750578151008E-002  2.556370917431443E-002  2.619513279091939E-002  2.684215257085613E-002 
 2.750515373935482E-002  2.818453103671822E-002  2.888068895332428E-002  2.959404197047018E-002 
 3.032501480714292E-002  3.107404267287787E-002  3.184157152689773E-002  3.262805834361260E-002 
 3.343397138470065E-002  3.425979047790124E-002  3.510600730270588E-002  3.597312568308368E-002 
 3.686166188745598E-002  3.777214493607638E-002  3.870511691599665E-002  3.966113330382114E-002 
 4.064076329642530E-002  4.164459014984813E-002  4.267321152654887E-002  4.372723985125508E-002 
 4.480730267557980E-002  4.591404305166680E-002  4.704811991504437E-002  4.821020847694617E-002 
 4.940100062632621E-002  5.062120534179484E-002  5.187154911373924E-002  5.315277637684798E-002 
 5.446564995335449E-002  5.581095150720440E-002  5.718948200943207E-002  5.860206221506375E-002 
 6.004953315177656E-002  6.153275662062557E-002  6.305261570915399E-002  6.461001531717167E-002 
 6.620588269550455E-002  6.784116799808364E-002  6.951684484763684E-002  7.123391091537418E-002 
 7.299338851498345E-002  7.479632521130256E-002  7.664379444402204E-002  7.853689616678895E-002 
 8.047675750210943E-002  8.246453341241167E-002  8.450140738769796E-002  8.658859215017457E-002 
 8.872733037628329E-002  9.091889543657683E-002  9.316459215385990E-002  9.546575758006209E-002 
 9.782376179228904E-002  1.002400087085594E-001  1.027159369236598E-001  1.052530205656755E-001 
 1.078527701736454E-001  1.105167335969360E-001  1.132464969167797E-001  1.160436853906252E-001 
 1.189099644197720E-001  1.218470405409420E-001  1.248566624423033E-001  1.279406220046283E-001 
 1.311007553681416E-001  1.343389440257354E-001  1.376571159431703E-001  1.410572467069662E-001 
 1.445413607006275E-001  1.481115323099344E-001  1.517698871579894E-001  1.555186033707906E-001 
 1.593599128740493E-001  1.632961027220393E-001  1.673295164592743E-001  1.714625555158176E-001 
 1.756976806370596E-001  1.800374133487942E-001  1.844843374585097E-001  1.890411005937334E-001 
 1.937104157783986E-001  1.984950630481265E-001  2.033978911054149E-001  2.084218190157181E-001 
 2.135698379454066E-001  2.188450129426568E-001  2.242504847623427E-001  2.297894717359725E-001 
 2.354652716878506E-001  2.412812638985390E-001  2.472409111168331E-001  2.533477616214131E-001 
 2.596054513334711E-001  2.660177059814037E-001  2.725883433191470E-001  2.793212753991238E-001 
 2.862205109014810E-001  2.932901575207647E-001  3.005344244115207E-001  3.079576246944802E-001 
 3.155641780244284E-001  3.233586132216342E-001  3.313455709682093E-001  3.395298065711260E-001 
 3.479161927934347E-001  3.565097227554340E-001  3.653155129074802E-001  3.743388060763129E-001 
 3.835849745863864E-001  3.930595234586702E-001  4.027680936881149E-001  4.127164656021997E-001 
 4.229105623025843E-001  4.333564531914544E-001  4.440603575852668E-001  4.550286484176272E-001 
 4.662678560335460E-001  4.777846720775848E-001  4.895859534778939E-001  5.016787265288019E-001 
 5.140701910740535E-001  5.267677247935780E-001  5.397788875959801E-001  5.531114261196123E-001 
 5.667732783447630E-001  5.807725783198906E-001  5.951176610043903E-001  6.098170672311904E-001 
 6.248795487918104E-001  6.403140736469562E-001  6.561298312660460E-001  6.723362380982983E-001 
 6.889429431793387E-001  7.059598338758600E-001  7.233970417726077E-001  7.412649487043727E-001 
 7.595741929373867E-001  7.783356755029462E-001  7.975605666878562E-001  8.172603126850583E-001 
 8.374466424083725E-001  8.581315744758432E-001  8.793274243654197E-001  9.010468117472445E-001 
 9.233026679973801E-001  9.461082438969229E-001  9.694771175211714E-001  9.934232023239420E-001 
 1.017960755421356E+000  1.043104386080266E+000  1.068869064416451E+000  1.095270130307529E+000 
 1.122323302526126E+000  1.150044688098528E+000  1.178450791894565E+000  1.207558526454354E+000 
 1.237385222057782E+000  1.267948637042594E+000  1.299266968377540E+000  1.331358862496487E+000 
 1.364243426400150E+000  1.397940239032222E+000  1.432469362936319E+000  1.467851356200850E+000 
 1.504107284699001E+000  1.541258734631080E+000  1.579327825376450E+000  1.618337222663249E+000 
 1.658310152063035E+000  1.699270412818987E+000  1.741242392015626E+000  1.784251079098404E+000 
 1.828322080752150E+000  1.873481636146724E+000  1.919756632559536E+000
    </PP_RAB>
  </PP_MESH>
  <PP_LOCAL type="real" size="543" columns="4">
-9.023944225978999E+000 -9.023944248693800E+000 -9.023944270855401E+000 -9.023944292477200E+000 
-9.023944313571601E+000 -9.023944334151199E+000 -9.023944354228201E+000 -9.023944373814199E+000 
-9.023944392920800E+000 -9.023944411559000E+000 -9.023944429740000E+000 -9.023944447473999E+000 
-9.023944464771800E+000 -9.023944481643200E+000 -9.023944498098199E+000 -9.023944514146001E+000 
-9.023944529796200E+000 -9.023944545057800E+000 -9.023944559939601E+000 -9.023944574450001E+000 
-9.023944588597400E+000 -9.023944602389999E+000 -9.023944615835600E+000 -9.023944628941800E+000 
-9.023944641716000E+000 -9.023944654165399E+000 -9.023944666297000E+000 -9.023944678117600E+000 
-9.023944689633799E+000 -9.023944700852001E+000 -9.023944711778199E+000 -9.023944722418401E+000 
-9.023944732778400E+000 -9.023944742863801E+000 -9.023944752680000E+000 -9.023944762232000E+000 
-9.023944771525001E+000 -9.023944780563600E+000 -9.023944789352599E+000 -9.023944797896201E+000 
-9.023944806198999E+000 -9.023944814264800E+000 -9.023944822097400E+000 -9.023944829700600E+000 
-9.023944837078000E+000 -9.023944844232600E+000 -9.023944851167800E+000 -9.023944857886400E+000 
-9.023944864391201E+000 -9.023944870684799E+000 -9.023944876769400E+000 -9.023944882647401E+000 