<UPF version="2.0.1">
  <PP_INFO>
    Generated using FHI98PP, converted with fhi2upf.x v.5.0.1
    Author: Abinit web site
    Generation date: 10-Jul-2012, PG
    Pseudopotential type: SL
    Element: Sb
    Functional: SLA-PW

    Suggested minimum cutoff for wavefunctions:   0. Ry
    Suggested minimum cutoff for charge density:   0. Ry
    The Pseudo was generated with a Non-Relativistic Calculation
    L component and cutoff radius for Local Potential:  0   0.0000

    Valence configuration: 
    nl pn  l   occ       Rcut    Rcut US       E pseu
    5s  5  0  2.00      0.000      0.000     0.000000
    5p  5  1  3.00      0.000      0.000     0.000000
    5d  5  2  0.00      0.000      0.000     0.000000
    4f  4  3  0.00      0.000      0.000     0.000000

    Generation configuration: not available.
    Comment:
    antimony, fhi98PP : Trouiller-Martins-type, LDA Ceperley/Alder Perdew/Wang (1992
  </PP_INFO>
  <!--                               -->
  <!-- END OF HUMAN READABLE SECTION -->
  <!--                               -->
  <PP_HEADER generated="Generated using FHI98PP, converted with fhi2upf.x v.5.0.1"
             author="Abinit web site"
             date="10-Jul-2012, PG"
             comment="antimony, fhi98PP : Trouiller-Martins-type, LDA Ceperley/Alder Perdew/Wang (1992"
             element="Sb"
             pseudo_type="SL"
             relativistic="no"
             is_ultrasoft="F"
             is_paw="F"
             is_coulomb="F"
             has_so="F"
             has_wfc="F"
             has_gipaw="F"
             paw_as_gipaw="F"
             core_correction="F"
             functional="SLA-PW"
             z_valence="5.000000000000000E+000"
             total_psenergy="0.000000000000000E+000"
             wfc_cutoff="0.000000000000000E+000"
             rho_cutoff="0.000000000000000E+000"
             l_max="3"
             l_max_rho="0"
             l_local="0"
             mesh_size="549"
             number_of_wfc="4"
             number_of_proj="3"/>
  <PP_MESH dx="2.439988682353512E-002" mesh="549" xmin="-5.075173815233852E+000" rmax="7.858167512412000E+001"
zmesh="5.100000000000000E+001">
    <PP_R type="real" size="549" columns="4">
 1.225490196078400E-004  1.255759803921600E-004  1.286777071078400E-004  1.318560464734100E-004 
 1.351128908213000E-004  1.384501792245900E-004  1.418698986514300E-004  1.453740851481200E-004 
 1.489648250512800E-004  1.526442562300500E-004  1.564145693589300E-004  1.602780092221000E-004 
 1.642368760498800E-004  1.682935268883100E-004  1.724503770024600E-004  1.767099013144200E-004 
 1.810746358768800E-004  1.855471793830400E-004  1.901301947138000E-004  1.948264105232300E-004 
 1.996386228631600E-004  2.045696968478800E-004  2.096225683600200E-004  2.148002457985100E-004 
 2.201058118697400E-004  2.255424254229200E-004  2.311133233308600E-004  2.368218224171400E-004 
 2.426713214308400E-004  2.486653030701800E-004  2.548073360560200E-004  2.611010772566000E-004 
 2.675502738648400E-004  2.741587656293000E-004  2.809304871403400E-004  2.878694701727100E-004 
 2.949798460859700E-004  3.022658482843000E-004  3.097318147369200E-004  3.173821905609200E-004 
 3.252215306677800E-004  3.332545024752700E-004  3.414858886864100E-004  3.499205901369600E-004 
 3.585636287133500E-004  3.674201503425700E-004  3.764954280560300E-004  3.857948651290100E-004 
 3.953239982977000E-004  4.050885010556500E-004  4.150941870317300E-004  4.253470134514100E-004 
 4.358530846836600E-004  4.466186558753500E-004  4.576501366754700E-004  4.689540950513500E-004 
 4.805372611991200E-004  4.924065315507400E-004  5.045689728800400E-004  5.170318265101800E-004 
 5.298025126249800E-004  5.428886346868200E-004  5.562979839635800E-004  5.700385441674800E-004 
 5.841184962084200E-004  5.985462230647700E-004  6.133303147744700E-004  6.284795735493900E-004 
 6.440030190160600E-004  6.599098935857600E-004  6.762096679573300E-004  6.929120467558800E-004 
 7.100269743107500E-004  7.275646405762200E-004  7.455354871984500E-004  7.639502137322600E-004 
 7.828197840114400E-004  8.021554326765299E-004  8.219686718636400E-004  8.422712980586700E-004 
 8.630753991207200E-004  8.843933614790000E-004  9.062378775075300E-004  9.286219530819600E-004 
 9.515589153230900E-004  9.750624205315700E-004  9.991464623187001E-004  1.023825379938000E-003 
 1.049113866822400E-003  1.075026979333000E-003  1.101580145722500E-003  1.128789175321800E-003 
 1.156670267952300E-003  1.185240023570700E-003  1.214515452152900E-003  1.244513983821100E-003 
 1.275253479221400E-003  1.306752240158200E-003  1.339029020490100E-003  1.372103037296200E-003 
 1.405993982317400E-003  1.440722033680700E-003  1.476307867912600E-003  1.512772672250000E-003 
 1.550138157254600E-003  1.588426569738800E-003  1.627660706011400E-003  1.667863925449800E-003 
 1.709060164408400E-003  1.751273950469300E-003  1.794530417045900E-003  1.838855318347000E-003 
 1.884275044710100E-003  1.930816638314500E-003  1.978507809280800E-003  2.027376952170100E-003 
 2.077453162888700E-003  2.128766256012000E-003  2.181346782535500E-003  2.235226048064100E-003 
 2.290436131451300E-003  2.347009903898200E-003  2.404981048524500E-003  2.464384080423000E-003 
 2.525254367209500E-003  2.587628150079500E-003  2.651542565386500E-003  2.717035666751600E-003 
 2.784146447720300E-003  2.852914864979000E-003  2.923381862144000E-003  2.995589394138900E-003 
 3.069580452174200E-003  3.145399089342900E-003  3.223090446849600E-003  3.302700780886800E-003 
 3.384277490174700E-003  3.467869144182100E-003  3.553525512043300E-003  3.641297592190800E-003 
 3.731237642717900E-003  3.823399212493100E-003  3.917837173041600E-003  4.014607751215800E-003 
 4.113768562670800E-003  4.215378646168800E-003  4.319498498729100E-003  4.426190111647700E-003 
 4.535517007405400E-003  4.647544277488400E-003  4.762338621142300E-003  4.879968385084500E-003 
 5.000503604196100E-003  5.124016043219800E-003  5.250579239487300E-003  5.380268546702600E-003 
 5.513161179806200E-003  5.649336260947400E-003  5.788874866592800E-003  5.931860075797600E-003 
 6.078377019669800E-003  6.228512932055700E-003  6.382357201477500E-003  6.540001424354000E-003 
 6.701539459535500E-003  6.867067484186000E-003  7.036684051045400E-003  7.210490147106200E-003 
 7.388589253739800E-003  7.571087408307100E-003  7.758093267292300E-003  7.949718170994401E-003 
 8.146076209818000E-003  8.347284292200500E-003  8.553462214217900E-003  8.764732730909001E-003 
 8.981221629362501E-003  9.203057803607801E-003  9.430373331356901E-003  9.663303552641399E-003 
 9.901987150391599E-003  1.014656623300600E-002  1.039718641896200E-002  1.065399692351000E-002 
 1.091715064752100E-002  1.118680426851400E-002  1.146311833394700E-002  1.174625735679500E-002 
 1.203638991350800E-002  1.233368874437200E-002  1.263833085635800E-002  1.295049762851000E-002 
 1.327037491993400E-002  1.359815318045600E-002  1.393402756401300E-002  1.427819804484500E-002 
 1.463086953655200E-002  1.499225201410500E-002  1.536256063885300E-002  1.574201588663300E-002 
 1.613084367903300E-002  1.652927551790500E-002  1.693754862319700E-002  1.735590607419000E-002 
 1.778459695422300E-002  1.822387649899200E-002  1.867400624851700E-002  1.913525420285600E-002 
 1.960789498166600E-002  2.009220998771300E-002  2.058848757441000E-002  2.109702321749800E-002 
 2.161811969097000E-002  2.215208724733700E-002  2.269924380234600E-002  2.325991512426400E-002 
 2.383443502783300E-002  2.442314557302100E-002  2.502639726867400E-002  2.564454928121100E-002 
 2.627796964845700E-002  2.692703549877400E-002  2.759213327559300E-002  2.827365896750000E-002 
 2.897201834399800E-002  2.968762719709400E-002  3.042091158886300E-002  3.117230810510800E-002 
 3.194226411530400E-002  3.273123803895200E-002  3.353969961851400E-002  3.436813019909100E-002 
 3.521702301500900E-002  3.608688348347900E-002  3.697822950552100E-002  3.789159177430800E-002 
 3.882751409113300E-002  3.978655368918400E-002  4.076928156530700E-002  4.177628281997000E-002 
 4.280815700562300E-002  4.386551848366200E-002  4.494899679020900E-002  4.605923701092700E-002 
 4.719690016509700E-002  4.836266359917400E-002  4.955722139007400E-002  5.078128475840900E-002 
 5.203558249194200E-002  5.332086137949300E-002  5.463788665556600E-002  5.598744245595800E-002 
 5.737033228462100E-002  5.878737949205100E-002  6.023942776550400E-002  6.172734163131200E-002 
 6.325200696960601E-002  6.481433154175500E-002  6.641524553083600E-002  6.805570209544801E-002 
 6.973667793720600E-002  7.145917388225501E-002  7.322421547714600E-002  7.503285359943200E-002 
 7.688616508333800E-002  7.878525336089599E-002  8.073124911891000E-002  8.272531097214700E-002 
 8.476862615315900E-002  8.686241121914200E-002  8.900791277625500E-002  9.120640822182900E-002 
 9.345920650490799E-002  9.576764890557900E-002  9.813310983354701E-002  1.005569976464400E-001 
 1.030407554883000E-001  1.055858621488600E-001  1.081938329439400E-001  1.108662206176600E-001 
 1.136046162669100E-001  1.164106502887000E-001  1.192859933508400E-001  1.222323573866000E-001 
 1.252514966140500E-001  1.283452085804200E-001  1.315153352323500E-001  1.347637640125900E-001 
 1.380924289837000E-001  1.415033119796000E-001  1.449984437855000E-001  1.485799053470000E-001 
 1.522498290090700E-001  1.560103997855900E-001  1.598638566603000E-001  1.638124939198100E-001 
 1.678586625196300E-001  1.720047714838600E-001  1.762532893395100E-001  1.806067455862000E-001 
 1.850677322021800E-001  1.896389051875700E-001  1.943229861457000E-001  1.991227639035000E-001 
 2.040410961719200E-001  2.090809112473700E-001  2.142452097551800E-001  2.195370664361300E-001 
 2.249596319771000E-001  2.305161348869400E-001  2.362098834186400E-001  2.420442675390800E-001 
 2.480227609473000E-001  2.541489231427000E-001  2.604264015443200E-001  2.668589336624700E-001 
 2.734503493239300E-001  2.802045729522300E-001  2.871256259041500E-001  2.942176288639800E-001 
 3.014848042969200E-001  3.089314789630600E-001  3.165620864934500E-001  3.243811700298300E-001 
 3.323933849295700E-001  3.406035015373300E-001  3.490164080253000E-001  3.576371133035300E-001 
 3.664707500021300E-001  3.755225775271800E-001  3.847979851921000E-001  3.943024954263400E-001 
 4.040417670633700E-001  4.140215987098400E-001  4.242479321979700E-001  4.347268561232600E-001 
 4.454646094695100E-001  4.564675853234000E-001  4.677423346808900E-001  4.792955703475100E-001 
 4.911341709350900E-001  5.032651849571900E-001  5.156958350256300E-001  5.284335221507700E-001 
 5.414858301478900E-001  5.548605301525400E-001  5.685655852473100E-001  5.826091552029200E-001 
 5.969996013364300E-001  6.117454914894400E-001  6.268556051292300E-001  6.423389385759199E-001 
 6.582047103587499E-001  6.744623667046100E-001  6.911215871622099E-001  7.081922903651200E-001 
 7.256846399371401E-001  7.436090505435800E-001  7.619761940920100E-001  7.807970060860800E-001 
 8.000826921364100E-001  8.198447346321800E-001  8.400948995775900E-001  8.608452435971600E-001 
 8.821081211140100E-001  9.038961917055300E-001  9.262224276406500E-001  9.491001216033800E-001 
 9.725428946069800E-001  9.965647041037700E-001  1.021179852295100E+000  1.046402994646800E+000 
 1.072249148614600E+000  1.098733702585400E+000  1.125872425039200E+000  1.153681473937700E+000 
 1.182177406344000E+000  1.211377188280700E+000  1.241298204831200E+000  1.271958270490500E+000 
 1.303375639771600E+000  1.335569018074000E+000  1.368557572820400E+000  1.402360944869100E+000 
 1.436999260207400E+000  1.472493141934500E+000  1.508863722540300E+000  1.546132656487000E+000 
 1.584322133102200E+000  1.623454889789900E+000  1.663554225567700E+000  1.704644014939200E+000 
 1.746748722108200E+000  1.789893415544300E+000  1.834103782908200E+000  1.879406146346000E+000 
 1.925827478160800E+000  1.973395416871400E+000  2.022138283668100E+000  2.072085099274700E+000 
 2.123265601226800E+000  2.175710261577100E+000  2.229450305038000E+000  2.284517727572500E+000 
 2.340945315443500E+000  2.398766664735000E+000  2.458016201353900E+000  2.518729201527400E+000 
 2.580941812805100E+000  2.644691075581400E+000  2.710014945148200E+000  2.776952314293400E+000 
 2.845543036456400E+000  2.915827949456900E+000  2.987848899808500E+000  3.061648767633800E+000 
 3.137271492194300E+000  3.214762098051500E+000  3.294166721873400E+000  3.375532639903700E+000 
 3.458908296109300E+000  3.544343331023200E+000  3.631888611299500E+000  3.721596259998600E+000 
 3.813519687620500E+000  3.907713623904700E+000  4.004234150415200E+000  4.103138733930400E+000 
 4.204486260658500E+000  4.308337071296800E+000  4.414752996957800E+000  4.523797395982700E+000 
 4.635535191663500E+000  4.750032910897500E+000  4.867358723796700E+000  4.987582484274500E+000 
 5.110775771636100E+000  5.237011933195500E+000  5.366366127945400E+000  5.498915371305700E+000 
 5.634738580976900E+000  5.773916623927000E+000  5.916532364538000E+000  6.062670713942100E+000 
 6.212418680576500E+000  6.365865421986700E+000  6.523102297909800E+000  6.684222924668200E+000 
 6.849323230907500E+000  7.018501514710900E+000  7.191858502124200E+000  7.369497407126700E+000 
 7.551523993082700E+000  7.738046635711900E+000  7.929176387614000E+000  8.125027044388000E+000 
 8.325715212384400E+000  8.531360378130300E+000  8.742084979470100E+000  8.958014478462999E+000 
 9.179277436081099E+000  9.406005588752301E+000  9.638333926794500E+000  9.876400774786299E+000 
 1.012034787392400E+001  1.037032046640900E+001  1.062646738193000E+001  1.088894112626300E+001 
 1.115789797208200E+001  1.143349805199300E+001  1.171590545387700E+001  1.200528831858700E+001 
 1.230181894005700E+001  1.260567386787600E+001  1.291703401241300E+001  1.323608475251900E+001 
 1.356301604590600E+001  1.389802254224000E+001  1.424130369903400E+001  1.459306390040000E+001 
 1.495351257874000E+001  1.532286433943400E+001  1.570133908861800E+001  1.608916216410700E+001 
 1.648656446956100E+001  1.689378261195900E+001  1.731105904247400E+001  1.773864220082300E+001 
 1.817678666318400E+001  1.862575329376400E+001  1.908580940012000E+001  1.955722889230300E+001 
 2.004029244594300E+001  2.053528766935800E+001  2.104250927479100E+001  2.156225925387900E+001 
 2.209484705744900E+001  2.264058977976800E+001  2.319981234732900E+001  2.377284771230800E+001 
 2.436003705080200E+001  2.496172996595600E+001  2.557828469611600E+001  2.621006832811000E+001 
 2.685745701581400E+001  2.752083620410500E+001  2.820060085834600E+001  2.889715569954700E+001 
 2.961091544532600E+001  3.034230505682500E+001  3.109175999172900E+001  3.185972646352500E+001 
 3.264666170717400E+001  3.345303425134100E+001  3.427932419734900E+001  3.512602350502400E+001 
 3.599363628559800E+001  3.688267910185200E+001  3.779368127566800E+001  3.872718520317700E+001 
 3.968374667769500E+001  4.066393522063400E+001  4.166833442058400E+001  4.269754228077200E+001 
 4.375217157510700E+001  4.483285021301200E+001  4.594022161327400E+001  4.707494508712200E+001 
 4.823769623077400E+001  4.942916732767400E+001  5.065006776066700E+001  5.190112443435600E+001 
 5.318308220788400E+001  5.449670433841900E+001  5.584277293557800E+001  5.722208942708700E+001 
 5.863547503593600E+001  6.008377126932300E+001  6.156784041967600E+001  6.308856607804200E+001 
 6.464685366016900E+001  6.624363094557600E+001  6.787984862993100E+001  6.955648089109100E+001 
 7.127452596910000E+001  7.303500676053700E+001  7.483897142752301E+001  7.668749402178200E+001 
 7.858167512412000E+001
    </PP_R>
    <PP_RAB type="real" size="549" columns="4">
 2.990182208766482E-006  3.064039709323170E-006  3.139721490143297E-006  3.217272610949991E-006 
 3.296739244440377E-006  3.378168703778150E-006  3.461609470761290E-006  3.547111224689086E-006 
 3.634724871938941E-006  3.724502576275916E-006  3.816497789909876E-006  3.910765285320759E-006 
 4.007361187868038E-006  4.106343009208329E-006  4.207769681535988E-006  4.311701592669909E-006 
 4.418200622008704E-006  4.527330177372345E-006  4.639155232753416E-006  4.753742367002404E-006 
 4.871159803467515E-006  4.991477450613162E-006  5.114766943643243E-006  5.241101687151170E-006 
 5.370556898823969E-006  5.503209654224858E-006  5.639138932684063E-006  5.778425664321548E-006 
 5.921152778230209E-006  6.067405251852452E-006  6.217270161573368E-006  6.370836734564141E-006 
 6.528196401907923E-006  6.689442853035011E-006  6.854672091504884E-006  7.023982492165144E-006 
 7.197474859721478E-006  7.375252488756757E-006  7.557421225228996E-006  7.744089529492106E-006 
 7.935368540870689E-006  8.131372143830092E-006  8.332217035782717E-006  8.538022796566443E-006 
 8.748911959641807E-006  8.965010085044968E-006  9.186445834145541E-006  9.413351046248841E-006 
 9.645860817091270E-006  9.884113579273347E-006  1.012825118468153E-005  1.037841898894307E-005 
 1.063476593796997E-005  1.089744465663792E-005  1.116661153965685E-005  1.144242684468627E-005 
 1.172505478775006E-005  1.201466364100753E-005  1.231142583294034E-005  1.261551805101404E-005 
 1.292712134687405E-005  1.324642124414191E-005  1.357360784887211E-005  1.390887596273924E-005 
 1.425242519901898E-005  1.460446010143480E-005  1.496519026594024E-005  1.533483046550873E-005 
 1.571360077800680E-005  1.610172671722365E-005  1.649943936713912E-005  1.690697551950755E-005 
 1.732457781483938E-005  1.775249488686578E-005  1.819098151057129E-005  1.864029875388261E-005 
 1.910071413310334E-005  1.957250177219118E-005  2.005594256596429E-005  2.055132434734356E-005 
 2.105894205872297E-005  2.157909792757338E-005  2.211210164638442E-005  2.265827055704996E-005 
 2.321792983980924E-005  2.379141270685252E-005  2.437906060071178E-005  2.498122339755005E-005 
 2.559825961546786E-005  2.623053662797203E-005  2.687843088268233E-005  2.754232812548346E-005 
 2.822262363018416E-005  2.891972243384918E-005  2.963403957796534E-005  3.036600035554166E-005 
 3.111604056432156E-005  3.188460676626106E-005  3.267215655338753E-005  3.347915882025607E-005 
 3.430609404311600E-005  3.515345456598243E-005  3.602174489376187E-005  3.691148199263679E-005 
 3.782319559785553E-005  3.875742852912283E-005  3.971473701379343E-005  4.069569101803214E-005 
 4.170087458617729E-005  4.273088618845617E-005  4.378633907731124E-005  4.486786165252245E-005 
 4.597609783533802E-005  4.711170745187234E-005  4.827536662593193E-005  4.946776818159402E-005 
 5.068962205567935E-005  5.194165572045340E-005  5.322461461674868E-005  5.453926259778171E-005 
 5.588638238394733E-005  5.726677602883212E-005  5.868126539674463E-005  6.013069265204287E-005 
 6.161592076054960E-005  6.313783400333334E-005  6.469733850321657E-005  6.629536276424733E-005 
 6.793285822452266E-005  6.961079982266858E-005  7.133018657828895E-005  7.309204218677130E-005 
 7.489741562878624E-005  7.674738179481720E-005  7.864304212514749E-005  8.058552526563898E-005 
 8.257598773970017E-005  8.461561463687284E-005  8.670562031840121E-005  8.884724914026645E-005 
 9.104177619403073E-005  9.329050806602494E-005  9.559478361525381E-005  9.795597477055237E-005 
 1.003754873473843E-004  1.028547618848654E-004  1.053952745034199E-004  1.079985377836542E-004 
 1.106661016669105E-004  1.133995543780853E-004  1.162005233712224E-004  1.190706762984913E-004 
 1.220117220030643E-004  1.250254115365414E-004  1.281135392014932E-004  1.312779436197692E-004 
 1.345205088271786E-004  1.378431653952096E-004  1.412478915804713E-004  1.447367145025079E-004 
 1.483117113507198E-004  1.519750106210840E-004  1.557287933834253E-004  1.595752945799961E-004 
 1.635168043561209E-004  1.675556694237164E-004  1.716942944584824E-004  1.759351435316064E-004 
 1.802807415768389E-004  1.847336758937851E-004  1.892965976883619E-004  1.939722236512640E-004 
 1.987633375754511E-004  2.036727920135647E-004  2.087035099763009E-004  2.138584866727135E-004 
 2.191407912935307E-004  2.245535688384820E-004  2.301000419887923E-004  2.357835130259150E-004 
 2.416073657976541E-004  2.475750677328495E-004  2.536901719058692E-004  2.599563191519354E-004 
 2.663772402349956E-004  2.729567580687812E-004  2.796987899930973E-004  2.866073501059148E-004 
 2.936865516535349E-004  3.009406094793858E-004  3.083738425335269E-004  3.159906764441040E-004 
 3.237956461522686E-004  3.317933986122206E-004  3.399886955579360E-004  3.483864163382384E-004 
 3.569915608217766E-004  3.658092523740785E-004  3.748447409077086E-004  3.841034060081371E-004 
 3.935907601365421E-004  4.033124519119119E-004  4.132742694741300E-004  4.234821439301417E-004 
 4.339421528852286E-004  4.446605240614863E-004  4.556436390058024E-004  4.668980368892612E-004 
 4.784304184004126E-004  4.902476497348992E-004  5.023567666833632E-004  5.147649788204440E-004 
 5.274796737973041E-004  5.405084217400984E-004  5.538589797570734E-004  5.675392965570745E-004 
 5.815575171820264E-004  5.959219878564352E-004  6.106412609564741E-004  6.257241001021174E-004 
 6.411794853746418E-004  6.570166186633981E-004  6.732449291443666E-004  6.898740788942289E-004 
 7.069139686429346E-004  7.243747436683968E-004  7.422667998370252E-004  7.606007897930018E-004 
 7.793876293008848E-004  7.986385037446164E-004  8.183648747871057E-004  8.385784871943399E-004 
 8.592913758280513E-004  8.805158728109865E-004  9.022646148694195E-004  9.245505508567096E-004 
 9.473869494628603E-004  9.707874071145933E-004  9.947658560703276E-004  1.019336572715263E-003 
 1.044514186061323E-003  1.070313686457041E-003  1.096750434512543E-003  1.123840170244999E-003 
 1.151599022450053E-003  1.180043518304547E-003  1.209190593206679E-003  1.239057600858889E-003 
 1.269662323600110E-003  1.301022982993034E-003  1.333158250672950E-003  1.366087259464561E-003 
 1.399829614773355E-003  1.434405406258254E-003  1.469835219792817E-003  1.506140149721701E-003 
 1.543341811419841E-003  1.581462354161905E-003  1.620524474309695E-003  1.660551428825153E-003 
 1.701567049117145E-003  1.743595755230339E-003  1.786662570384511E-003  1.830793135873021E-003 
 1.876013726329085E-003  1.922351265369402E-003  1.969833341624024E-003  2.018488225162135E-003 
 2.068344884323639E-003  2.119433002966432E-003  2.171782998139708E-003  2.225426038193771E-003 
 2.280394061337153E-003  2.336719794652174E-003  2.394436773580088E-003  2.453579361887624E-003 
 2.514182772126075E-003  2.576283086597565E-003  2.639917278836602E-003  2.705123235623980E-003 
 2.771939779543741E-003  2.840406692098406E-003  2.910564737393459E-003  2.982455686406937E-003 
 3.056122341861212E-003  3.131608563705257E-003  3.208959295228621E-003  3.288220589820791E-003 
 3.369439638389341E-003  3.452664797457621E-003  3.537945617954920E-003  3.625332874718361E-003 
 3.714878596723882E-003  3.806636098062864E-003  3.900660009685161E-003  3.997006311924400E-003 
 4.095732367828949E-003  4.196896957314206E-003  4.300560312159834E-003  4.406784151870281E-003 
 4.515631720421498E-003  4.627167823915816E-003  4.741458869166463E-003  4.858572903234905E-003 
 4.978579653944893E-003  5.101550571397419E-003  5.227558870510934E-003  5.356679574612483E-003 
 5.488989560105352E-003  5.624567602240092E-003  5.763494422015241E-003  5.905852734239008E-003 
 6.051727296774827E-003  6.201204961005206E-003  6.354374723541920E-003  6.511327779213535E-003 
 6.672157575360035E-003  6.836959867471402E-003  7.005832776197944E-003  7.178876845769972E-003 
 7.356195103860483E-003  7.537893122925985E-003  7.724079083062317E-003  7.914863836413755E-003 
 8.110360973173253E-003  8.310686889210623E-003  8.515960855374075E-003  8.726305088501939E-003 
 8.941844824188005E-003  9.162708391345385E-003  9.389027288611584E-003  9.620936262640170E-003 
 9.858573388327369E-003  1.010208015101917E-002  1.035160153074927E-002  1.060728608855878E-002 
 1.086928605494632E-002  1.113775742050332E-002  1.141286002878980E-002  1.169475767150096E-002 
 1.198361818598695E-002  1.227961355518090E-002  1.258292000999381E-002  1.289371813424083E-002 
 1.321219297215648E-002  1.353853413856867E-002  1.387293593179137E-002  1.421559744930666E-002 
 1.456672270630448E-002  1.492652075715020E-002  1.529520581985183E-002  1.567299740360212E-002 
 1.606012043947121E-002  1.645680541432613E-002  1.686328850805989E-002  1.727981173420905E-002 
 1.770662308404405E-002  1.814397667421976E-002  1.859213289807308E-002  1.905135858065542E-002 
 1.952192713759770E-002  2.000411873789638E-002  2.049822047072230E-002  2.100452651634923E-002 
 2.152333832130306E-002  2.205496477783934E-002  2.259972240785181E-002  2.315793555132589E-002 
 2.372993655944356E-002  2.431606599246175E-002  2.491667282247476E-002  2.553211464119015E-002 
 2.616275787282813E-002  2.680897799228746E-002  2.747115974869551E-002  2.814969739448906E-002 
 2.884499492013389E-002  2.955746629466128E-002  3.028753571213860E-002  3.103563784422767E-002 
 3.180221809897972E-002  3.258773288602553E-002  3.339264988830969E-002  3.421744834055181E-002 
 3.506261931456425E-002  3.592866601163344E-002  3.681610406212122E-002  3.772546183245450E-002 
 3.865728073971542E-002  3.961211557398824E-002  4.059053482866549E-002  4.159312103893299E-002 
 4.262047112859468E-002  4.367319676547164E-002  4.475192472557771E-002  4.585729726629868E-002 
 4.698997250877757E-002  4.815062482974507E-002  4.933994526303920E-002  5.055864191103621E-002 
 5.180744036623917E-002  5.308708414328524E-002  5.439833512162306E-002  5.574197399912864E-002 
 5.711880075690612E-002  5.852963513560282E-002  5.997531712345087E-002  6.145670745640155E-002 
 6.297468813057401E-002  6.453016292739953E-002  6.612405795170481E-002  6.775732218311288E-002 
 6.943092804103462E-002  7.114587196364884E-002  7.290317500115133E-002  7.470388342368049E-002 
 7.654906934424408E-002  7.843983135704692E-002  8.037729519156665E-002  8.236261438279902E-002 
 8.439697095805362E-002  8.648157614071755E-002  8.861767107139394E-002  9.080652754685742E-002 
 9.304944877726321E-002  9.534777016206097E-002  9.770286008506518E-002  1.001161207291650E-001 
 1.025889889111758E-001  1.051229369372827E-001  1.077194734796328E-001  1.103801444745808E-001 
 1.131065340431036E-001  1.159002654339661E-001  1.187630019901858E-001  1.216964481393439E-001 
 1.247023504083862E-001  1.277824984634731E-001  1.309387261755202E-001  1.341729127120567E-001 
 1.374869836560433E-001  1.408829121523468E-001  1.443627200825098E-001  1.479284792685481E-001 
 1.515823127064820E-001  1.553263958303311E-001  1.591629578073410E-001  1.630942828651830E-001 
 1.671227116519529E-001  1.712506426297558E-001  1.754805335027093E-001  1.798149026802270E-001 
 1.842563307764279E-001  1.888074621466071E-001  1.934710064616286E-001  1.982497403212293E-001 
 2.031465089071640E-001  2.081642276771711E-001  2.133058841007968E-001  2.185745394380862E-001 
 2.239733305622085E-001  2.295054718270950E-001  2.351742569812247E-001  2.409830611286603E-001 
 2.469353427385499E-001  2.530346457041696E-001  2.592846014530796E-001  2.656889311089543E-001 
 2.722514477073529E-001  2.789760584657385E-001  2.858667671098367E-001  2.929276762574310E-001 
 3.001629898610116E-001  3.075770157105686E-001  3.151741679986310E-001  3.229589699481825E-001 
 3.309360565058972E-001  3.391101771015959E-001  3.474861984760217E-001  3.560691075783760E-001 
 3.648640145355648E-001  3.738761556945718E-001  3.831108967402273E-001  3.925737358897142E-001 
 4.022703071662037E-001  4.122063837532052E-001  4.223878814318999E-001  4.328208621032652E-001 
 4.435115373972322E-001  4.544662723709281E-001  4.656915892984907E-001  4.771941715541644E-001 
 4.889808675915550E-001  5.010586950210715E-001  5.134348447880885E-001  5.261166854543704E-001 
 5.391117675850736E-001  5.524278282444252E-001  5.660727956020803E-001  5.800547936534510E-001 
 5.943821470566910E-001  6.090633860889716E-001  6.241072517253908E-001  6.395227008430064E-001 
 6.553189115538209E-001  6.715052886692099E-001  6.880914692993298E-001  7.050873285910196E-001 
 7.225029856072225E-001  7.403488093517074E-001  7.586354249427049E-001  7.773737199387969E-001 
 7.965748508212834E-001  8.162502496365645E-001  8.364116308025845E-001  8.570709980834201E-001 
 8.782406517360782E-001  8.999331958339527E-001  9.221615457710577E-001  9.449389359516028E-001 
 9.682789276695958E-001  9.921954171830333E-001  1.016702643987462E+000  1.041815199293942E+000 
 1.067548034716501E+000  1.093916471173995E+000  1.120936208012008E+000  1.148623332349908E+000 
 1.176994328658952E+000  1.206066088576826E+000  1.235855920964660E+000  1.266381562212500E+000 
 1.297661186799134E+000  1.329713418113079E+000  1.362557339540473E+000  1.396212505827128E+000 
 1.430698954721057E+000  1.466037218902652E+000  1.502248338209565E+000  1.539353872163342E+000 
 1.577375912805761E+000  1.616337097852083E+000  1.656260624169012E+000  1.697170261586004E+000 
 1.739090367047155E+000  1.782045899113225E+000  1.826062432821340E+000  1.871166174912007E+000 
 1.917383979432333E+000
    </PP_RAB>
  </PP_MESH>
  <PP_LOCAL type="real" size="549" columns="4">
-9.060256666735200E-001 -9.060257891342800E-001 -9.060259086224201E-001 -9.060260252085200E-001 
-9.060261389614800E-001 -9.060262499484200E-001 -9.060263582348000E-001 -9.060264638844800E-001 
-9.060265669596800E-001 -9.060266675210600E-001 -9.060267656277600E-001 -9.060268613374201E-001 
-9.060269547062000E-001 -9.060270457888200E-001 -9.060271346386400E-001 -9.060272213076001E-001 
-9.060273058463000E-001 -9.060273883040399E-001 -9.060274687288400E-001 -9.060275471674000E-001 
-9.060276236652400E-001 -9.060276982666400E-001 -9.060277710147000E-001 -9.060278419513000E-001 
-9.060279111172400E-001 -9.060279785521400E-001 -9.060280442945600E-001 -9.060281083819400E-001 
-9.060281708506400E-001 -9.060282317359800E-001 -9.060282910722800E-001 -9.060283488928000E-001 
-9.060284052297600E-001 -9.060284601144800E-001 -9.060285135772000E-001 -9.060285656473001E-001 
-9.060286163531200E-001 -9.060286657220800E-001 -9.060287137807000E-001 -9.060287605545400E-001 