<UPF version="2.0.1">
  <PP_INFO>
    Generated using FHI98PP, converted with fhi2upf.x v.5.0.1
    Author: Abinit web site
    Generation date: 10-Jul-2012, PG
    Pseudopotential type: SL
    Element: Sc
    Functional: SLA-PW

    Suggested minimum cutoff for wavefunctions:   0. Ry
    Suggested minimum cutoff for charge density:   0. Ry
    The Pseudo was generated with a Non-Relativistic Calculation
    L component and cutoff radius for Local Potential:  1   0.0000

    Valence configuration: 
    nl pn  l   occ       Rcut    Rcut US       E pseu
    4s  4  0  2.00      0.000      0.000     0.000000
    4p  4  1  0.00      0.000      0.000     0.000000
    3d  3  2  1.00      0.000      0.000     0.000000
    4f  4  3  0.00      0.000      0.000     0.000000

    Generation configuration: not available.
    Comment:
    scandium, fhi98PP : Trouiller-Martins-type, LDA Ceperley/Alder Perdew/Wang (1992
  </PP_INFO>
  <!--                               -->
  <!-- END OF HUMAN READABLE SECTION -->
  <!--                               -->
  <PP_HEADER generated="Generated using FHI98PP, converted with fhi2upf.x v.5.0.1"
             author="Abinit web site"
             date="10-Jul-2012, PG"
             comment="scandium, fhi98PP : Trouiller-Martins-type, LDA Ceperley/Alder Perdew/Wang (1992"
             element="Sc"
             pseudo_type="SL"
             relativistic="no"
             is_ultrasoft="F"
             is_paw="F"
             is_coulomb="F"
             has_so="F"
             has_wfc="F"
             has_gipaw="F"
             paw_as_gipaw="F"
             core_correction="F"
             functional="SLA-PW"
             z_valence="3.000000000000000E+000"
             total_psenergy="0.000000000000000E+000"
             wfc_cutoff="0.000000000000000E+000"
             rho_cutoff="0.000000000000000E+000"
             l_max="3"
             l_max_rho="0"
             l_local="1"
             mesh_size="513"
             number_of_wfc="4"
             number_of_proj="3"/>
  <PP_MESH dx="2.439988682353512E-002" mesh="513" xmin="-5.075173815233819E+000" rmax="7.928474986027901E+001"
zmesh="2.100000000000000E+001">
    <PP_R type="real" size="513" columns="4">
 2.976190476190500E-004  3.049702380952400E-004  3.125030029761900E-004  3.202218271497000E-004 
 3.281313062803000E-004  3.362361495454200E-004  3.445411824392000E-004  3.530513496454400E-004 
 3.617717179816900E-004  3.707074794158300E-004  3.798639541574000E-004  3.892465938250900E-004 
 3.988609846925700E-004  4.087128510144800E-004  4.188080584345400E-004  4.291526174778700E-004 
 4.397526871295700E-004  4.506145785016700E-004  4.617447585906600E-004  4.731498541278500E-004 
 4.848366555248100E-004  4.968121209162700E-004  5.090833803029100E-004  5.216577397963900E-004 
 5.345426859693600E-004  5.477458903128000E-004  5.612752138035300E-004  5.751387115844800E-004 
 5.893446377606099E-004  6.039014503133000E-004  6.188178161360400E-004  6.341026161946000E-004 
 6.497649508146000E-004  6.658141450997200E-004  6.822597544836900E-004  6.991115704194300E-004 
 7.163796262087900E-004  7.340742029761500E-004  7.522058357896600E-004  7.707853199336700E-004 
 7.898237173360300E-004  8.093323631542299E-004  8.293228725241400E-004  8.498071474754800E-004 
 8.707973840181300E-004  8.923060794033800E-004  9.143460395646400E-004  9.369303867418900E-004 
 9.600725672944100E-004  9.837863597065800E-004  1.008085882791300E-003  1.032985604096300E-003 
 1.058500348517500E-003  1.084645307125800E-003  1.111436046211800E-003  1.138888516553300E-003 
 1.167019062912100E-003  1.195844433766100E-003  1.225381791280100E-003  1.255648721524700E-003 
 1.286663244946400E-003  1.318443827096600E-003  1.351009389625800E-003  1.384379321549600E-003 
 1.418573490791900E-003  1.453612256014400E-003  1.489516478738000E-003  1.526307535762800E-003 
 1.564007331896200E-003  1.602638312994000E-003  1.642223479324900E-003  1.682786399264300E-003 
 1.724351223326100E-003  1.766942698542300E-003  1.810586183196200E-003  1.855307661921200E-003 
 1.901133761170600E-003  1.948091765071600E-003  1.996209631668800E-003  2.045516009571000E-003 
 2.096040255007500E-003  2.147812449306100E-003  2.200863416804000E-003  2.255224743199100E-003 
 2.310928794356100E-003  2.368008735576700E-003  2.426498551345400E-003  2.486433065563600E-003 
 2.547847962283100E-003  2.610779806951500E-003  2.675266068183200E-003  2.741345140067300E-003 
 2.809056365026900E-003  2.878440057243100E-003  2.949537526657000E-003  3.022391103565400E-003 
 3.097044163823500E-003  3.173541154669900E-003  3.251927621190300E-003  3.332250233433700E-003 
 3.414556814199500E-003  3.498896367510200E-003  3.585319107787700E-003  3.673876489750100E-003 
 3.764621239046900E-003  3.857607383651400E-003  3.952890286027600E-003  4.050526676092400E-003 
 4.150574684991900E-003  4.253093879711200E-003  4.358145298540100E-003  4.465791487414000E-003 
 4.576096537153200E-003  4.689126121620900E-003  4.804947536824900E-003  4.923629740984500E-003 
 5.045243395586800E-003  5.169860907457800E-003  5.297556471872000E-003  5.428406116727200E-003 
 5.562487747810400E-003  5.699881195181300E-003  5.840668260702300E-003  5.984932766741600E-003 
 6.132760606080100E-003  6.284239793050300E-003  6.439460515938700E-003  6.598515190682300E-003 
 6.761498515892200E-003  6.928507529234700E-003  7.099641665206800E-003  7.275002814337400E-003 
 7.454695383851600E-003  7.638826359832700E-003  7.827505370920600E-003  8.020844753582300E-003 
 8.218959618995800E-003  8.421967921585000E-003  8.629990529248101E-003  8.843151295320600E-003 
 9.061577132315000E-003  9.285398087483200E-003  9.514747420244000E-003  9.749761681524000E-003 
 9.990580795057699E-003  1.023734814069600E-002  1.049021063977100E-002  1.074931884257300E-002 
 1.101482701798500E-002  1.128689324532900E-002  1.156567950848800E-002  1.185135179234800E-002 
 1.214408018161900E-002  1.244403896210500E-002  1.275140672446900E-002  1.306636647056400E-002 
 1.338910572238600E-002  1.371981663372900E-002  1.405869610458300E-002  1.440594589836600E-002 
 1.476177276205500E-002  1.512638854927800E-002  1.550001034644500E-002  1.588286060200200E-002 
 1.627516725887200E-002  1.667716389016600E-002  1.708908983825300E-002  1.751119035725800E-002 
 1.794371675908200E-002  1.838692656303200E-002  1.884108364913800E-002  1.930645841527200E-002 
 1.978332793812900E-002  2.027197613820100E-002  2.077269394881500E-002  2.128577948935100E-002 
 2.181153824273700E-002  2.235028323733300E-002  2.290233523329500E-002  2.346802291355800E-002 
 2.404768307952200E-002  2.464166085158700E-002  2.525030987462100E-002  2.587399252852400E-002 
 2.651308014397900E-002  2.716795322353500E-002  2.783900166815600E-002  2.852662500936000E-002 
 2.923123264709100E-002  2.995324409347400E-002  3.069308922258300E-002  3.145120852638100E-002 
 3.222805337698200E-002  3.302408629539400E-002  3.383978122689000E-002  3.467562382319400E-002 
 3.553211173162700E-002  3.640975489139800E-002  3.730907583721600E-002  3.823061001039500E-002 
 3.917490607765200E-002  4.014252625777000E-002  4.113404665633600E-002  4.215005760874800E-002 
 4.319116403168400E-002  4.425798578326700E-002  4.535115803211300E-002  4.647133163550600E-002 
 4.761917352690300E-002  4.879536711301800E-002  5.000061268071000E-002  5.123562781392300E-002 
 5.250114782092700E-002  5.379792617210400E-002  5.512673494855500E-002  5.648836530178400E-002 
 5.788362792473800E-002  5.931335353447900E-002  6.077839336678100E-002  6.227961968294000E-002 
 6.381792628910900E-002  6.539422906844999E-002  6.700946652644101E-002  6.866460034964400E-002 
 7.036061597828000E-002  7.209852319294301E-002  7.387935671580900E-002  7.570417682669001E-002 
 7.757406999430901E-002  7.949014952316800E-002  8.145355621639000E-002  8.346545905493501E-002 
 8.552705589359200E-002  8.763957417416400E-002  8.980427165626600E-002  9.202243716617600E-002 
 9.429539136418000E-002  9.662448753087501E-002  9.901111237288800E-002  1.014566868485000E-001 
 1.039626670136600E-001  1.065305448888900E-001  1.091618493476500E-001  1.118581470265400E-001 
 1.146210432580900E-001  1.174521830265700E-001  1.203532519473200E-001  1.233259772704200E-001 
 1.263721289090000E-001  1.294935204930500E-001  1.326920104492300E-001  1.359695031073300E-001 
 1.393279498340800E-001  1.427693501949800E-001  1.462957531448000E-001  1.499092582474700E-001 
 1.536120169261900E-001  1.574062337442600E-001  1.612941677177500E-001  1.652781336603700E-001 
 1.693605035617800E-001  1.735437079997600E-001  1.778302375873500E-001  1.822226444557600E-001 
 1.867235437738200E-001  1.913356153050300E-001  1.960616050030700E-001  2.009043266466400E-001 
 2.058666635148200E-001  2.109515701036300E-001  2.161620738851900E-001  2.215012771101600E-001 
 2.269723586547800E-001  2.325785759135500E-001  2.383232667386100E-001  2.442098514270600E-001 
 2.502418347573100E-001  2.564228080758100E-001  2.627564514352800E-001  2.692465357857400E-001 
 2.758969252196400E-001  2.827115792725700E-001  2.896945552806000E-001  2.968500107960300E-001 
 3.041822060626900E-001  3.116955065524400E-001  3.193943855642900E-001  3.272834268877200E-001 
 3.353673275318500E-001  3.436509005218900E-001  3.521390777647800E-001  3.608369129855700E-001 
 3.697495847363100E-001  3.788823994793000E-001  3.882407947464400E-001  3.978303423766800E-001 
 4.076567518333800E-001  4.177258736036600E-001  4.280437026816700E-001  4.386163821379100E-001 
 4.494502067767200E-001  4.605516268841000E-001  4.719272520681400E-001  4.835838551942200E-001 
 4.955283764175200E-001  5.077679273150300E-001  5.203097951197100E-001  5.331614470591700E-001 
 5.463305348015300E-001  5.598248990111300E-001  5.736525740167100E-001  5.878217925949200E-001 
 6.023409908720100E-001  6.172188133465500E-001  6.324641180362101E-001  6.480859817517099E-001 
 6.640937055009700E-001  6.804968200268500E-001  6.973050914815100E-001  7.145285272411001E-001 
 7.321773818639600E-001  7.502621631960000E-001  7.687936386269399E-001  7.877828415010200E-001 
 8.072410776861000E-001  8.271799323049500E-001  8.476112766328801E-001  8.685472751657100E-001 
 8.900003928623000E-001  9.119834025660000E-001  9.345093926093800E-001  9.575917746068300E-001 
 9.812442914396200E-001  1.005481025438200E+000  1.030316406766500E+000  1.055765222013600E+000 
 1.081842622997400E+000  1.108564135785400E+000  1.135945669939300E+000  1.164003527986800E+000 
 1.192754415128100E+000  1.222215449181700E+000  1.252404170776500E+000  1.283338553794700E+000 
 1.315037016073400E+000  1.347518430370500E+000  1.380802135600600E+000  1.414907948349900E+000 
 1.449856174674200E+000  1.485667622188600E+000  1.522363612456700E+000  1.559965993684400E+000 
 1.598497153728400E+000  1.637980033425500E+000  1.678438140251100E+000  1.719895562315300E+000 
 1.762376982704500E+000  1.805907694177300E+000  1.850513614223500E+000  1.896221300494800E+000 
 1.943057966617000E+000  1.991051498392400E+000  2.040230470402700E+000  2.090624163021700E+000 
 2.142262579848300E+000  2.195176465570600E+000  2.249397324270200E+000  2.304957438179600E+000 
 2.361889886902700E+000  2.420228567109200E+000  2.480008212716800E+000  2.541264415570900E+000 
 2.604033646635500E+000  2.668353277707400E+000  2.734261603666700E+000  2.801797865277300E+000 
 2.871002272549600E+000  2.941916028681600E+000  3.014581354590100E+000  3.089041514048400E+000 
 3.165340839445400E+000  3.243524758179700E+000  3.323639819706800E+000  3.405733723253500E+000 
 3.489855346217900E+000  3.576054773269500E+000  3.664383326169200E+000  3.754893594325600E+000 
 3.847639466105400E+000  3.942676160918200E+000  4.040060262092900E+000  4.139849750566600E+000 
 4.242104039405600E+000  4.346884009178900E+000  4.454252044205700E+000  4.564272069697500E+000 
 4.677009589819100E+000  4.792531726687600E+000  4.910907260336800E+000  5.032206669667100E+000 
 5.156502174407900E+000  5.283867778115700E+000  5.414379312235200E+000  5.548114481247400E+000 
 5.685152908934200E+000  5.825576185784900E+000  5.969467917573800E+000  6.116913775137900E+000 
 6.268001545383800E+000  6.422821183554700E+000  6.581464866788500E+000  6.744027048998200E+000 
 6.910604517108500E+000  7.081296448681100E+000  7.256204470963500E+000  7.435432721396300E+000 
 7.619087909614800E+000  7.807279380982200E+000  8.000119181692501E+000  8.197722125480301E+000 
 8.400205861979700E+000  8.607690946770600E+000  8.820300913155799E+000  9.038162345710800E+000 
 9.261404955649800E+000  9.490161658054401E+000  9.724568651008299E+000  9.964765496688200E+000 
 1.021089520445600E+001  1.046310431600600E+001  1.072154299261200E+001  1.098636510452900E+001 
 1.125772832261100E+001  1.153579421218000E+001  1.182072832922100E+001  1.211270031895200E+001 
 1.241188401683000E+001  1.271845755204600E+001  1.303260345358200E+001  1.335450875888500E+001 
 1.368436512523000E+001  1.402236894382300E+001  1.436872145673500E+001  1.472362887671700E+001 
 1.508730250997100E+001  1.545995888196800E+001  1.584181986635200E+001  1.623311281705100E+001 
 1.663407070363200E+001  1.704493225001200E+001  1.746594207658700E+001  1.789735084587900E+001 
 1.833941541177200E+001  1.879239897244300E+001  1.925657122706200E+001  1.973220853637100E+001 
 2.021959408721900E+001  2.071901806117400E+001  2.123077780728500E+001  2.175517801912500E+001 
 2.229253091619700E+001  2.284315642982700E+001  2.340738239364400E+001  2.398554473876700E+001 
 2.457798769381400E+001  2.518506398985100E+001  2.580713507040100E+001  2.644457130664000E+001 
 2.709775221791400E+001  2.776706669769600E+001  2.845291324512900E+001  2.915570020228400E+001 
 2.987584599728000E+001  3.061377939341300E+001  3.136993974443000E+001  3.214477725611800E+001 
 3.293875325434400E+001  3.375234045972600E+001  3.458602326908100E+001  3.544029804382800E+001 
 3.631567340551000E+001  3.721267053862600E+001  3.813182350093100E+001  3.907367954140300E+001 
 4.003879942607600E+001  4.102775777190000E+001  4.204114338886600E+001  4.307955963057100E+001 
 4.414362475344600E+001  4.523397228485600E+001  4.635125140029200E+001  4.749612730988000E+001 
 4.866928165443400E+001  4.987141291129800E+001  5.110323681020700E+001  5.236548675941900E+001 
 5.365891428237700E+001  5.498428946515200E+001  5.634240141494100E+001  5.773405872989000E+001 
 5.916008998051800E+001  6.062134420303700E+001  6.211869140485200E+001  6.365302308255200E+001 
 6.522525275269101E+001  6.683631649568200E+001  6.848717351312600E+001  7.017880669890000E+001 
 7.191222322436300E+001  7.368845513800400E+001  7.550855997991300E+001  7.737362141141701E+001 
 7.928474986027901E+001
    </PP_R>
    <PP_RAB type="real" size="513" columns="4">
 7.261871078433130E-006  7.441239294070414E-006  7.625037904633895E-006  7.813376340878306E-006 
 8.006366736498060E-006  8.204123994889478E-006  8.406765857563447E-006  8.614412974245063E-006 
 8.827188974709101E-006  9.045220542384228E-006  9.268637489781094E-006  9.497572835778741E-006 
 9.732162884822483E-006  9.972547308077684E-006  1.021886922658726E-005  1.047127529648389E-005 
 1.072991579630696E-005  1.099494471647573E-005  1.126651985097265E-005  1.154480289129169E-005 
 1.182995952270665E-005  1.212215952291743E-005  1.242157686313369E-005  1.272838981165305E-005 
 1.304278104000086E-005  1.336493773168880E-005  1.369505169366161E-005  1.403331947049512E-005 
 1.437994246141619E-005  1.473512704021324E-005  1.509908467810654E-005  1.547203206965577E-005 
 1.585419126177611E-005  1.624578978594196E-005  1.664706079365490E-005  1.705824319525799E-005 
 1.747958180218087E-005  1.791132747269481E-005  1.835373726127035E-005  1.880707457162386E-005 
 1.927160931354293E-005  1.974761806358744E-005  2.023538422975806E-005  2.073519822023293E-005 
 2.124735761627282E-005  2.177216734939481E-005  2.230993988292478E-005  2.286099539803311E-005 
 2.342566198436441E-005  2.400427583537817E-005  2.459718144851121E-005  2.520473183029078E-005 
 2.582728870649948E-005  2.646522273754801E-005  2.711891373916527E-005  2.778875090852432E-005 
 2.847513305596325E-005  2.917846884244728E-005  2.989917702285518E-005  3.063768669531925E-005 
 3.139443755669460E-005  3.216988016434555E-005  3.296447620440279E-005  3.377869876665257E-005 
 3.461303262618950E-005  3.546797453205492E-005  3.634403350299776E-005  3.724173113052111E-005 
 3.816160188944641E-005  3.910419345611486E-005  4.007006703447963E-005  4.105979769023310E-005 
 4.207397469318118E-005  4.311320186810386E-005  4.417809795424371E-005  4.526929697371484E-005 
 4.638744860896429E-005  4.753321858960781E-005  4.870728908876945E-005  4.991035912926159E-005 
 5.114314499975669E-005  5.240638068124860E-005  5.370081828407641E-005  5.502722849569410E-005 
 5.638640103953730E-005  5.777914514521398E-005  5.920629003029969E-005  6.066868539404732E-005 
 6.216720192328223E-005  6.370273181078747E-005  6.527618928651388E-005  6.688851116189015E-005 
 6.854065738758732E-005  7.023361162506160E-005  7.196838183220050E-005  7.374600086345518E-005 
 7.556752708478336E-005  7.743404500377652E-005  7.934666591537111E-005  8.130652856348077E-005 
 8.331479981899843E-005  8.537267537452702E-005  8.748138045627781E-005  8.964217055354892E-005 
 9.185633216622092E-005  9.412518357072759E-005  9.645007560492481E-005  9.883239247236447E-005 
 1.012735525664323E-004  1.037750093148232E-004  1.063382520449001E-004  1.089648068704082E-004 
 1.116562376001091E-004  1.144141466688321E-004  1.172401760915514E-004  1.201360084410133E-004 
 1.231033678495060E-004  1.261440210353889E-004  1.292597783549628E-004  1.324524948803295E-004 
 1.357240715038745E-004  1.390764560700198E-004  1.425116445349499E-004  1.460316821549620E-004 
 1.496386647041891E-004  1.533347397223831E-004  1.571221077935274E-004  1.610030238560254E-004 
 1.649797985452704E-004  1.690547995693376E-004  1.732304531187004E-004  1.775092453107321E-004 
 1.818937236699087E-004  1.863864986445546E-004  1.909902451610759E-004  1.957077042165536E-004 
 2.005416845107029E-004  2.054950641181173E-004  2.105707922018336E-004  2.157718907692206E-004 
 2.211014564712199E-004  2.265626624460595E-004  2.321587602084764E-004  2.378930815856251E-004 
 2.437690407007914E-004  2.497901360061101E-004  2.559599523654563E-004  2.622821631888748E-004 
 2.687605326196509E-004  2.753989177753506E-004  2.822012710443865E-004  2.891716424391913E-004 
 2.963141820074394E-004  3.036331423030235E-004  3.111328809179083E-004  3.188178630765956E-004 
 3.266926642945648E-004  3.347619731026422E-004  3.430305938382993E-004  3.515034495061004E-004 
 3.601855847088854E-004  3.690821686512008E-004  3.781984982168814E-004  3.875400011228337E-004 
 3.971122391505811E-004  4.069209114575971E-004  4.169718579705973E-004  4.272710628624747E-004 
 4.378246581151712E-004  4.486389271706324E-004  4.597203086717253E-004  4.710754002959240E-004 
 4.827109626832281E-004  4.946339234615089E-004  5.068513813710189E-004  5.193706104908895E-004 
 5.321990645699909E-004  5.453443814648793E-004  5.588143876870588E-004  5.726171030629442E-004 
 5.867607455085774E-004  6.012537359226589E-004  6.161047031999437E-004  6.313224893689790E-004 
 6.469161548564038E-004  6.628949838813502E-004  6.792684899832119E-004  6.960464216858105E-004 
 7.132387683014454E-004  7.308557658784875E-004  7.489079032956908E-004  7.674059285070993E-004 
 7.863608549412097E-004  8.057839680582709E-004  8.256868320693045E-004  8.460812968214119E-004 
 8.669795048529033E-004  8.883938986227655E-004  9.103372279187593E-004  9.328225574483470E-004 
 9.558632746173270E-004  9.794730975003748E-004  1.003666083008612E-003  1.028456635258937E-003 
 1.053859514149830E-003  1.079889844149341E-003  1.106563123299813E-003  1.133895232445314E-003 
 1.161902444686713E-003  1.190601435070487E-003  1.220009290516739E-003  1.250143519992489E-003 
 1.281022064936306E-003  1.312663309940236E-003  1.345086093695760E-003  1.378309720210038E-003 
 1.412353970299224E-003  1.447239113365615E-003  1.482985919465754E-003  1.519615671676546E-003 
 1.557150178766966E-003  1.595611788182510E-003  1.635023399350626E-003  1.675408477314584E-003 
 1.716791066704249E-003  1.759195806051831E-003  1.802647942461319E-003  1.847173346640126E-003 
 1.892798528302131E-003  1.939550651951184E-003  1.987457553054372E-003  2.036547754614819E-003 
 2.086850484153807E-003  2.138395691112413E-003  2.191214064682894E-003  2.245337052080566E-003 
 2.300796877266943E-003  2.357626560135430E-003  2.415859936170785E-003  2.475531676594244E-003 
 2.536677309006172E-003  2.599333238538444E-003  2.663536769530451E-003  2.729326127737928E-003 
 2.796740483092919E-003  2.865819973025441E-003  2.936605726359016E-003  3.009139887800113E-003 
 3.083465643028790E-003  3.159627244411546E-003  3.237670037348552E-003  3.317640487271159E-003 
 3.399586207306731E-003  3.483555986627164E-003  3.569599819496953E-003  3.657768935038367E-003 
 3.748115827733997E-003  3.840694288678859E-003  3.935559437609392E-003  4.032767755718139E-003 
 4.132377119284349E-003  4.234446834130771E-003  4.339037670933701E-003  4.446211901405824E-003 
 4.556033335370614E-003  4.668567358754186E-003  4.783880972515555E-003  4.902042832536547E-003 
 5.023123290500395E-003  5.147194435775607E-003  5.274330138339272E-003  5.404606092756394E-003 
 5.538099863247454E-003  5.674890929869591E-003  5.815060735837256E-003  5.958692736012591E-003 
 6.105872446592141E-003  6.256687496022833E-003  6.411227677174534E-003  6.569585000800954E-003 
 6.731853750320548E-003  6.898130537953586E-003  7.068514362240979E-003  7.243106666988311E-003 
 7.422011401662874E-003  7.605335083283986E-003  7.793186859841216E-003  7.985678575279100E-003 
 8.182924836088575E-003  8.385043079540043E-003  8.592153643604664E-003  8.804379838601700E-003 
 9.021848020615073E-003  9.244687666724342E-003  9.473031452092466E-003  9.707015328959220E-003 
 9.946778607584417E-003  1.019246403919164E-002  1.044421790095966E-002  1.070219008311343E-002 
 1.096653417816643E-002  1.123740757236701E-002  1.151497153940455E-002  1.179939133642776E-002 
 1.209083630243760E-002  1.238947995910774E-002  1.269550011409767E-002  1.300907896691596E-002 
 1.333040321739875E-002  1.365966417686855E-002  1.399705788203733E-002  1.434278521172358E-002 
 1.469705200645305E-002  1.506006919101247E-002  1.543205290003048E-002  1.581322460666137E-002 
 1.620381125444573E-002  1.660404539243069E-002  1.701416531362365E-002  1.743441519687007E-002 
 1.786504525223288E-002  1.830631186996304E-002  1.875847777315109E-002  1.922181217414779E-002 
 1.969659093484936E-002  2.018309673094022E-002  2.068161922019439E-002  2.119245521493314E-002 
 2.171590885874192E-002  2.225229180755287E-002  2.280192341519942E-002  2.336513092355480E-002 
 2.394224965736664E-002  2.453362322390412E-002  2.513960371753398E-002  2.576055192935627E-002 
 2.639683756201294E-002  2.704883944979378E-002  2.771694578420370E-002  2.840155434507351E-002 
 2.910307273739747E-002  2.982191863400963E-002  3.055852002426995E-002  3.131331546886992E-002 
 3.208675436095029E-002  3.287929719366789E-002  3.369141583435024E-002  3.452359380545784E-002 
 3.537632657245405E-002  3.625012183879238E-002  3.714549984821156E-002  3.806299369446286E-002 
 3.900314963871598E-002  3.996652743479247E-002  4.095370066243161E-002  4.196525706879362E-002 
 4.300179891839311E-002  4.406394335167740E-002  4.515232275246433E-002  4.626758512444971E-002 
 4.741039447702308E-002  4.858143122060458E-002  4.978139257175371E-002  5.101099296827732E-002 
 5.227096449459290E-002  5.356205731761048E-002  5.488504013335561E-002  5.624070062464769E-002 
 5.762984593007804E-002  5.905330312455105E-002  6.051191971172754E-002  6.200656412860708E-002 
 6.353812626258365E-002  6.510751798126954E-002  6.671567367540512E-002  6.836355081518843E-002 
 7.005213052032237E-002  7.178241814417495E-002  7.355544387233764E-002  7.537226333598254E-002 
 7.723395824038141E-002  7.914163700891881E-002  8.109643544304058E-002  8.309951739848229E-002 
 8.515207547822574E-002  8.725533174253836E-002  8.941053843657766E-002  9.161897873596163E-002 
 9.388196751073886E-002  9.620085210825403E-002  9.857701315532839E-002  1.010118653802651E-001 
 1.035068584551578E-001  1.060634778589997E-001  1.086832457621190E-001  1.113677219324414E-001 
 1.141185046641745E-001  1.169372317293788E-001  1.198255813530948E-001  1.227852732125158E-001 
 1.258180694608655E-001  1.289257757765471E-001  1.321102424382288E-001  1.353733654264528E-001 
 1.387170875524860E-001  1.421433996150330E-001  1.456543415855246E-001  1.492520038226877E-001 
 1.529385283171080E-001  1.567161099665386E-001  1.605869978827121E-001  1.645534967304156E-001 
 1.686179680996580E-001  1.727828319117200E-001  1.770505678599389E-001  1.814237168860795E-001 
 1.859048826931659E-001  1.904967332956850E-001  1.952020026080894E-001  2.000234920725091E-001 
 2.049640723267010E-001  2.100266849131705E-001  2.152143440305250E-001  2.205301383280802E-001 
 2.259772327447824E-001  2.315588703935798E-001  2.372783744923001E-001  2.431391503422598E-001 
 2.491446873557039E-001  2.552985611333882E-001  2.616044355933989E-001  2.680660651525432E-001 
 2.746872969618143E-001  2.814720731967835E-001  2.884244334047478E-001  2.955485169098265E-001 
 3.028485652774965E-001  3.103289248398580E-001  3.179940492834137E-001  3.258485023007025E-001 
 3.338969603075430E-001  3.421442152271349E-001  3.505951773432347E-001  3.592548782236283E-001 
 3.681284737157298E-001  3.772212470165258E-001  3.865386118178191E-001  3.960861155297218E-001 
 4.058694425833020E-001  4.158944178151167E-001  4.261670099351428E-001  4.366933350805482E-001 
 4.474796604570325E-001  4.585324080703269E-001  4.698581585496556E-001  4.814636550658460E-001 
 4.933558073459635E-001  5.055416957874257E-001  5.180285756733751E-001  5.308238814925090E-001 
 5.439352313653645E-001  5.573704315800875E-001  5.711374812401222E-001  5.852445770267530E-001 
 5.997001180793006E-001  6.145127109958542E-001  6.296911749574685E-001  6.452445469789203E-001 
 6.611820872892994E-001  6.775132848453335E-001  6.942478629810110E-001  7.113957851966496E-001 
 7.289672610909967E-001  7.469727524399489E-001  7.654229794252082E-001  7.843289270170249E-001 
 8.037018515143428E-001  8.235532872467398E-001  8.438950534417285E-001  8.647392612617564E-001 
 8.860983210149082E-001  9.079849495439741E-001  9.304121777977331E-001  9.533933585893130E-001 
 9.769421745464772E-001  1.001072646257773E+000  1.025799140620342E+000  1.051136379393665E+000 
 1.077099447964686E+000  1.103703804329411E+000  1.130965288296349E+000  1.158900130917288E+000 
 1.187524964150944E+000  1.216856830765459E+000  1.246913194485365E+000  1.277711950389151E+000 
 1.309271435563771E+000  1.341610440022203E+000  1.374748217890746E+000  1.408704498872646E+000 
 1.443499499994793E+000  1.479153937644670E+000  1.515689039904493E+000  1.553126559190137E+000 
 1.591488785202133E+000  1.630798558196614E+000  1.671079282584087E+000  1.712354940863908E+000 
 1.754650107903251E+000  1.797989965568443E+000  1.842400317717991E+000  1.887907605565629E+000 
 1.934538923423100E+000
    </PP_RAB>
  </PP_MESH>
  <PP_LOCAL type="real" size="513" columns="4">
-2.034366867528400E+000 -2.034366916376200E+000 -2.034366964026800E+000 -2.034367010508200E+000 
-2.034367055847200E+000 -2.034367100070600E+000 -2.034367143203800E+000 -2.034367185272200E+000 
-2.034367226300000E+000 -2.034367266311000E+000 -2.034367305328200E+000 -2.034367343374400E+000 
-2.034367380471200E+000 -2.034367416640000E+000 -2.034367451901400E+000 -2.034367486275600E+000 
-2.034367519782200E+000 -2.034367552439800E+000 -2.034367584267000E+000 -2.034367615281800E+000 
-2.034367645501400E+000 -2.034367674942600E+000 -2.034367703621600E+000 -2.034367731554000E+000 
-2.034367758755400E+000 -2.034367785240400E+000 -2.034367811023200E+000 -2.034367836117400E+000 
-2.034367860536400E+000 -2.034367884292800E+000 -2.034367907399200E+000 -2.034367929867000E+000 
-2.034367951707800E+000 -2.034367972932200E+000 -2.034367993550800E+000 -2.034368013573200E+000 
-2.034368033009200E+000 -2.034368051867400E+000 -2.034368070156400E+000 -2.034368087884200E+000 
-2.034368105058200E+000 -2.034368121685600E+000 -2.034368137772600E+000 -2.034368153325600E+000 
-2.034368168350000E+000 -2.034368182850800E+000 -2.034368196832600E+000 -2.034368210299400E+000 
-2.034368223254600E+000 -2.034368235701400E+000 -2.034368247642200E+000 -2.034368259078600E+000 
-2.034368270012200E+000 -2.034368280443600E+000 -2.034368290373000E+000 -2.034368299799800E+000 
-2.034368308723200E+000 -2.034368317141400E+000 -2.034368325051800E+000 -2.034368332451600E+000 
-2.034368339337000E+000 -2.034368345703400E+000 -2.034368351546000E+000 -2.034368356858400E+000 
-2.034368361634200E+000 -2.034368365865600E+000 -2.034368369544200E+000 -2.034368372661000E+000 
-2.034368375205400E+000 -2.034368377166200E+000 -2.034368378531600E+000 -2.034368379288400E+000 
-2.034368379422000E+000 -2.034368378917200E+000 -2.034368377757400E+000 -2.034368375925000E+000 
-2.034368373400800E+000 -2.034368370164800E+000 -2.034368366194800E+000 -2.034368361467800E+000 
-2.034368355959200E+000 -2.034368349642800E+000 -2.034368342490400E+000 -2.034368334472600E+000 
-2.034368325557800E+000 -2.034368315712800E+000 -2.034368304902000E+000 -2.034368293087800E+000 
-2.034368280231000E+000 -2.034368266289400E+000 -2.034368251218600E+000 -2.034368234971600E+000 
-2.034368217499000E+000 -2.034368198748400E+000 -2.034368178664400E+000 -2.034368157188800E+000 
-2.034368134259600E+000 -2.034368109812000E+000 -2.034368083777400E+000 -2.034368056083000E+000 
-2.034368026652800E+000 -2.034367995405800E+000 -2.034367962257000E+000 -2.034367927117000E+000 
-2.034367889891000E+000 -2.034367850479400E+000 -2.034367808777000E+000 -2.034367764672600E+000 
-2.034367718049600E+000 -2.034367668784400E+000 -2.034367616747000E+000 -2.034367561800000E+000 