<UPF version="2.0.1">
  <PP_INFO>
    Generated using FHI98PP, converted with fhi2upf.x v.5.0.1
    Author: Abinit web site
    Generation date: 10-Jul-2012, PG
    Pseudopotential type: SL
    Element: Sg
    Functional: SLA-PW

    Suggested minimum cutoff for wavefunctions:   0. Ry
    Suggested minimum cutoff for charge density:   0. Ry
    The Pseudo was generated with a Non-Relativistic Calculation
    L component and cutoff radius for Local Potential:  0   0.0000

    Valence configuration: 
    nl pn  l   occ       Rcut    Rcut US       E pseu
    7s  7  0  2.00      0.000      0.000     0.000000
    7p  7  1  0.00      0.000      0.000     0.000000
    6d  6  2  4.00      0.000      0.000     0.000000
    5f  5  3 14.00      0.000      0.000     0.000000

    Generation configuration: not available.
    Comment:
    seaborgium, fhi98PP : Trouiller-Martins-type, LDA Ceperley/Alder Perdew/Wang (19
  </PP_INFO>
  <!--                               -->
  <!-- END OF HUMAN READABLE SECTION -->
  <!--                               -->
  <PP_HEADER generated="Generated using FHI98PP, converted with fhi2upf.x v.5.0.1"
             author="Abinit web site"
             date="10-Jul-2012, PG"
             comment="seaborgium, fhi98PP : Trouiller-Martins-type, LDA Ceperley/Alder Perdew/Wang (19"
             element="Sg"
             pseudo_type="SL"
             relativistic="no"
             is_ultrasoft="F"
             is_paw="F"
             is_coulomb="F"
             has_so="F"
             has_wfc="F"
             has_gipaw="F"
             paw_as_gipaw="F"
             core_correction="T"
             functional="SLA-PW"
             z_valence="2.000000000000000E+001"
             total_psenergy="0.000000000000000E+000"
             wfc_cutoff="0.000000000000000E+000"
             rho_cutoff="0.000000000000000E+000"
             l_max="3"
             l_max_rho="0"
             l_local="0"
             mesh_size="579"
             number_of_wfc="4"
             number_of_proj="3"/>
  <PP_MESH dx="2.439988682353512E-002" mesh="579" xmin="-5.075173815233834E+000" rmax="7.861178893647001E+001"
zmesh="1.060000000000000E+002">
    <PP_R type="real" size="579" columns="4">
 5.896226415094300E-005  6.041863207547200E-005  6.191097228773600E-005  6.344017330324300E-005 
 6.500714558383300E-005  6.661282207975399E-005  6.825815878512400E-005  6.994413530711600E-005 
 7.167175544920200E-005  7.344204780879699E-005  7.525606638967400E-005  7.711489122949899E-005 
 7.901962904286800E-005  8.097141388022700E-005  8.297140780306800E-005  8.502080157580401E-005 
 8.712081537472700E-005  8.927269951448201E-005  9.147773519248999E-005  9.373723525174501E-005 
 9.605254496246300E-005  9.842504282303500E-005  1.008561413807600E-004  1.033472880728700E-004 
 1.058999660882700E-004  1.085156952506500E-004  1.111960329233400E-004  1.139425749365500E-004 
 1.167569565374800E-004  1.196408533639600E-004  1.225959824420500E-004  1.256241032083600E-004 
 1.287270185576100E-004  1.319065759159800E-004  1.351646683411100E-004  1.385032356491300E-004 
 1.419242655696700E-004  1.454297949292400E-004  1.490219108639900E-004  1.527027520623300E-004 
 1.564745100382700E-004  1.603394304362200E-004  1.642998143679900E-004  1.683580197828800E-004 
 1.725164628715200E-004  1.767776195044400E-004  1.811440267062000E-004  1.856182841658500E-004 
 1.902030557847400E-004  1.949010712626200E-004  1.997151277228100E-004  2.046480913775700E-004 
 2.097028992345900E-004  2.148825608456900E-004  2.201901600985700E-004  2.256288570530100E-004 
 2.312018898222200E-004  2.369125765008300E-004  2.427643171404000E-004  2.487605957737600E-004 
 2.549049824893800E-004  2.612011355568600E-004  2.676528036051200E-004  2.742638278541700E-004 
 2.810381444021600E-004  2.879797865689000E-004  2.950928872971500E-004  3.023816816133900E-004 
 3.098505091492400E-004  3.175038167252200E-004  3.253461609983400E-004  3.333822111750000E-004 
 3.416167517910200E-004  3.500546855602600E-004  3.587010362936000E-004  3.675609518900500E-004 
 3.766397074017300E-004  3.859427081745500E-004  3.954754930664700E-004  4.052437377452100E-004 
 4.152532580675100E-004  4.255100135417800E-004  4.360201108762600E-004  4.467898076149100E-004 
 4.578255158630000E-004  4.691338061048100E-004  4.807214111156000E-004  4.925952299701600E-004 
 5.047623321504200E-004  5.172299617545300E-004  5.300055418098700E-004  5.430966786925700E-004 
 5.565111666562800E-004  5.702569924726900E-004  5.843423401867700E-004  5.987755959893800E-004 
 6.135653532103200E-004  6.287204174346100E-004  6.442498117452500E-004  6.601627820953500E-004 
 6.764688028131100E-004  6.931775822425900E-004  7.102990685239900E-004  7.278434555165300E-004 
 7.458211888677900E-004  7.642429722328200E-004  7.831197736469700E-004  8.024628320560500E-004 
 8.222836640078400E-004  8.425940705088300E-004  8.634061440504000E-004  8.847322758084401E-004 
 9.065851630209100E-004  9.289778165475300E-004  9.519235686162500E-004  9.754360807610700E-004 
 9.995293519558699E-004  1.024217726949200E-003  1.049515904804800E-003  1.075438947653500E-003 
 1.102002289660500E-003  1.129221746215200E-003  1.157113523346700E-003  1.185694227373300E-003 
 1.214980874789500E-003  1.244990902396800E-003  1.275742177686000E-003  1.307253009474800E-003 
 1.339542158808800E-003  1.372628850131400E-003  1.406532782729700E-003  1.441274142463100E-003 
 1.476873613781900E-003  1.513352392042300E-003  1.550732196125800E-003  1.589035281370100E-003 
 1.628284452819900E-003  1.668503078804600E-003  1.709715104851000E-003  1.751945067940900E-003 
 1.795218111119000E-003  1.839559998463600E-003  1.884997130425700E-003  1.931556559547200E-003 
 1.979266006568000E-003  2.028153876930300E-003  2.078249277690400E-003  2.129582034849400E-003 
 2.182182711110200E-003  2.236082624074600E-003  2.291313864889200E-003  2.347909317352000E-003 
 2.405902677490600E-003  2.465328473624600E-003  2.526222086923100E-003  2.588619772470100E-003 
 2.652558680850100E-003  2.718076880267100E-003  2.785213379209700E-003  2.854008149676200E-003 
 2.924502150973200E-003  2.996737354102300E-003  3.070756766748600E-003  3.146604458887300E-003 
 3.224325589021800E-003  3.303966431070600E-003  3.385574401918100E-003  3.469198089645500E-003 
 3.554887282459700E-003  3.642692998336500E-003  3.732667515395400E-003  3.824864403025600E-003 
 3.919338553780400E-003  4.016146216058700E-003  4.115345027595400E-003  4.216994049777000E-003 
 4.321153802806500E-003  4.427886301735800E-003  4.537255093388700E-003  4.649325294195400E-003 
 4.764163628962000E-003  4.881838470597400E-003  5.002419880821100E-003  5.125979651877400E-003 
 5.252591349278800E-003  5.382330355606000E-003  5.515273915389400E-003  5.651501181099500E-003 
 5.791093260272700E-003  5.934133263801400E-003  6.080706355417300E-003  6.230899802396100E-003 
 6.384803027515300E-003  6.542507662295000E-003  6.704107601553600E-003  6.869699059312000E-003 
 7.039380626077000E-003  7.213253327541100E-003  7.391420684731400E-003  7.573988775644300E-003 
 7.761066298402700E-003  7.952764635973201E-003  8.149197922481701E-003  8.350483111167000E-003 
 8.556740044012899E-003  8.768091523100000E-003  8.984663383720601E-003  9.206584569298499E-003 
 9.433987208160100E-003  9.667006692201699E-003  9.905781757499101E-003  1.015045456690900E-002 
 1.040117079471200E-002  1.065807971334100E-002  1.092133428226100E-002  1.119109123903300E-002 
 1.146751119263700E-002  1.175075871909500E-002  1.204100245945700E-002  1.233841522020500E-002 
 1.264317407614400E-002  1.295546047582500E-002  1.327546034957800E-002  1.360336422021200E-002 
 1.393936731645200E-002  1.428366968916800E-002  1.463647633049000E-002  1.499799729585400E-002 
 1.536844782906100E-002  1.574804849043900E-002  1.613702528815300E-002  1.653560981277000E-002 
 1.694403937514600E-002  1.736255714771200E-002  1.779141230926000E-002  1.823086019329900E-002 
 1.868116244007300E-002  1.914258715234300E-002  1.961540905500600E-002  2.009990965866500E-002 
 2.059637742723400E-002  2.110510794968600E-002  2.162640411604400E-002  2.216057629771000E-002 
 2.270794253226300E-002  2.326882871281000E-002  2.384356878201700E-002  2.443250493093300E-002 
 2.503598780272700E-002  2.565437670145400E-002  2.628803980598000E-002  2.693735438918800E-002 
 2.760270704260000E-002  2.828449390655300E-002  2.898312090604500E-002  2.969900399242400E-002 
 3.043256939103700E-002  3.118425385499500E-002  3.195450492521400E-002  3.274378119686700E-002 
 3.355255259242900E-002  3.438130064146200E-002  3.523051876730600E-002  3.610071258085900E-002 
 3.699240018160600E-002  3.790611246609200E-002  3.884239344400400E-002  3.980180056207100E-002 
 4.078490503595400E-002  4.179229219034200E-002  4.282456180744400E-002  4.388232848408700E-002 
 4.496622199764400E-002  4.607688768098600E-002  4.721498680670700E-002  4.838119698083200E-002 
 4.957621254625900E-002  5.080074499615100E-002  5.205552339755600E-002  5.334129482547600E-002 
 5.465882480766500E-002  5.600889778041400E-002  5.739231755559100E-002  5.880990779921400E-002 
 6.026251252185400E-002  6.175099658114400E-002  6.327624619669800E-002  6.483916947775700E-002 
 6.644069696385700E-002  6.808178217886500E-002  6.976340219868300E-002  7.148655823298999E-002 
 7.325227622134500E-002  7.506160744401200E-002  7.691562914787900E-002  7.881544518783200E-002 
 8.076218668397100E-002  8.275701269506500E-002  8.480111090863400E-002  8.689569834807701E-002 
 8.904202209727401E-002  9.124136004307699E-002  9.349502163614100E-002  9.580434867055400E-002 
 9.817071608271601E-002  1.005955327699600E-001  1.030802424293800E-001  1.056263244173800E-001 
 1.082352946304900E-001  1.109087064078700E-001  1.136481514561400E-001  1.164552607971100E-001 
 1.193317057387900E-001  1.222791988705400E-001  1.252994950826500E-001  1.283943926111900E-001 
 1.315657341086800E-001  1.348154077411700E-001  1.381453483123700E-001  1.415575384156900E-001 
 1.450540096145600E-001  1.486368436520400E-001  1.523081736902400E-001  1.560701855803900E-001 
 1.599251191642300E-001  1.638752696075800E-001  1.679229887668900E-001  1.720706865894300E-001 
 1.763208325481900E-001  1.806759571121300E-001  1.851386532528000E-001  1.897115779881500E-001 
 1.943974539644500E-001  1.991990710773800E-001  2.041192881329900E-001  2.091610345498700E-001 
 2.143273121032500E-001  2.196211967122000E-001  2.250458402710000E-001  2.306044725256900E-001 
 2.363004029970700E-001  2.421370229511000E-001  2.481178074179900E-001  2.542463172612200E-001 
 2.605262012975700E-001  2.669611984696200E-001  2.735551400718200E-001  2.803119520315900E-001 
 2.872356572467700E-001  2.943303779807700E-001  3.016003383168900E-001  3.090498666733200E-001 
 3.166833983801500E-001  3.245054783201400E-001  3.325207636346500E-001  3.407340264964200E-001 
 3.491501569508900E-001  3.577741658275700E-001  3.666111877235100E-001  3.756664840602900E-001 
 3.849454462165700E-001  3.944535987381200E-001  4.041966026269600E-001  4.141802587118400E-001 
 4.244105111020200E-001  4.348934507262400E-001  4.456353189591800E-001  4.566425113374700E-001 
 4.679215813675100E-001  4.794792444272900E-001  4.913223817646400E-001  5.034580445942300E-001 
 5.158934582957000E-001  5.286360267156101E-001  5.416933365754800E-001  5.550731619889000E-001 
 5.687834690900200E-001  5.828324207765500E-001  5.972283815697300E-001  6.119799225945000E-001 
 6.270958266825800E-001  6.425850936016400E-001  6.584569454136000E-001  6.747208319653200E-001 
 6.913864365148600E-001  7.084636814967800E-001  7.259627344297500E-001  7.438940139701700E-001 
 7.622681961152300E-001  7.810962205592800E-001  8.003892972070900E-001  8.201589128481001E-001 
 8.404168379954500E-001  8.611751338939400E-001  8.824461597011199E-001  9.042425798457400E-001 
 9.265773715679300E-001  9.494638326456600E-001  9.729155893120000E-001  9.969466043680100E-001 
 1.021571185495900E+000  1.046803993777600E+000  1.072660052424000E+000  1.099154755718800E+000 
 1.126303878185100E+000  1.154123583976300E+000  1.182630436500500E+000  1.211841408282000E+000 
 1.241773891066600E+000  1.272445706175900E+000  1.303875115118500E+000  1.336080830461900E+000 
 1.369082026974300E+000  1.402898353040600E+000  1.437549942360700E+000  1.473057425937000E+000 
 1.509441944357600E+000  1.546725160383300E+000  1.584929271844700E+000  1.624077024859300E+000 
 1.664191727373300E+000  1.705297263039500E+000  1.747418105436500E+000  1.790579332640800E+000 
 1.834806642157000E+000  1.880126366218300E+000  1.926565487463900E+000  1.974151655004300E+000 
 2.022913200882900E+000  2.072879156944700E+000  2.124079272121200E+000  2.176544030142600E+000 
 2.230304667687100E+000  2.285393192979000E+000  2.341842404845600E+000  2.399685912245300E+000 
 2.458958154277700E+000  2.519694420688400E+000  2.581930872879400E+000  2.645704565439500E+000 
 2.711053468205900E+000  2.778016488870500E+000  2.846633496145700E+000  2.916945343500500E+000 
 2.988993893484900E+000  3.062822042654000E+000  3.138473747107500E+000  3.215994048661100E+000 
 3.295429101663000E+000  3.376826200474100E+000  3.460233807625800E+000  3.545701582674200E+000 
 3.633280411766200E+000  3.723022437936800E+000  3.814981092153900E+000  3.909211125130100E+000 
 4.005768639920800E+000  4.104711125326800E+000  4.206097490122400E+000  4.309988098128400E+000 
 4.416444804152200E+000  4.525530990814800E+000  4.637311606287900E+000  4.751853202963200E+000 
 4.869223977076400E+000  4.989493809310200E+000  5.112734306400100E+000  5.239018843768200E+000 
 5.368422609209300E+000  5.501022647656800E+000  5.636897907053900E+000  5.776129285358100E+000 
 5.918799678706500E+000  6.064994030770500E+000  6.214799383330600E+000  6.368304928098800E+000 
 6.525602059822900E+000  6.686784430700500E+000  6.851948006138800E+000  7.021191121890400E+000 
 7.194614542601100E+000  7.372321521803400E+000  7.554417863391900E+000  7.741011984617700E+000 
 7.932214980637700E+000  8.128140690659500E+000  8.328905765718799E+000  8.534629738132001E+000 
 8.745435092663900E+000  8.961447339452700E+000  9.182795088737199E+000  9.409610127429000E+000 
 9.642027497576500E+000  9.880185576766600E+000  1.012422616051300E+001  1.037429454667700E+001 
 1.063053962198000E+001  1.089311395064300E+001  1.116217386522400E+001  1.143787955969500E+001 
 1.172039518482000E+001  1.200988894588500E+001  1.230653320284800E+001  1.261050457295800E+001 
 1.292198403591000E+001  1.324115704159700E+001  1.356821362052500E+001  1.390334849695200E+001 
 1.424676120482700E+001  1.459865620658600E+001  1.495924301488800E+001  1.532873631735600E+001 
 1.570735610439500E+001  1.609532780017300E+001  1.649288239683800E+001  1.690025659204000E+001 
 1.731769292986300E+001  1.774543994523100E+001  1.818375231187800E+001  1.863289099398100E+001 
 1.909312340153300E+001  1.956472354955000E+001  2.004797222122400E+001  2.054315713508900E+001 
 2.105057311632500E+001  2.157052227229800E+001  2.210331417242400E+001  2.264926603248300E+001 
 2.320870290348500E+001  2.378195786520100E+001  2.436937222447200E+001  2.497129571841600E+001 
 2.558808672266100E+001  2.622011246471100E+001  2.686774924258900E+001  2.753138264888100E+001 
 2.821140780030900E+001  2.890822957297600E+001  2.962226284342900E+001  3.035393273566200E+001 
 3.110367487423200E+001  3.187193564362600E+001  3.265917245402300E+001  3.346585401363800E+001 
 3.429246060777500E+001  3.513948438478700E+001  3.600742964909100E+001  3.689681316142400E+001 
 3.780816444651100E+001  3.874202610834000E+001  3.969895415321500E+001  4.067951832080000E+001 
 4.168430242332400E+001  4.271390469318000E+001  4.376893813910100E+001  4.485003091113700E+001 
 4.595782667464200E+001  4.709298499350600E+001  4.825618172284500E+001  4.944810941140000E+001 
 5.066947771386100E+001  5.192101381339400E+001  5.320346285458400E+001  5.451758838709300E+001 
 5.586417282025400E+001  5.724401788891400E+001  5.865794513077000E+001  6.010679637550000E+001 
 6.159143424597500E+001  6.311274267185100E+001  6.467162741584600E+001  6.626901661301700E+001 
 6.790586132335800E+001  6.958313609804500E+001  7.130183955966700E+001  7.306299499679101E+001 
 7.486765097321199E+001  7.671688195225001E+001  7.861178893647001E+001
    </PP_R>
    <PP_RAB type="real" size="579" columns="4">
 1.438672572142391E-006  1.474207784674326E-006  1.510620716955778E-006  1.547933048664583E-006 
 1.586166994966596E-006  1.625345319742279E-006  1.665491349139915E-006  1.706628985463657E-006 
 1.748782721404615E-006  1.791977654623302E-006  1.836239502692491E-006  1.881594618408997E-006 
 1.928070005483708E-006  1.975693334619160E-006  2.024492959984238E-006  2.074497936095854E-006 
 2.125738035117437E-006  2.178243764584820E-006  2.232046385570072E-006  2.287177931293665E-006 
 2.343671226196616E-006  2.401559905483652E-006  2.460878435149001E-006  2.521662132497309E-006 
 2.583947187169995E-006  2.647770682693087E-006  2.713170618555581E-006  2.780185932833989E-006 
 2.848856525374921E-006  2.919223281551785E-006  2.991328096606119E-006  3.065213900592079E-006 
 3.140924683936789E-006  3.218505523629955E-006  3.298002610063745E-006  3.379463274532187E-006 
 3.462936017413290E-006  3.548470537043378E-006  3.636117759308295E-006  3.725929867963197E-006 
 3.817960335701898E-006  3.912263955993850E-006  4.008896875706786E-006  4.107916628536759E-006 
 4.209382169261686E-006  4.313353908842291E-006  4.419893750390703E-006  4.529065126025521E-006 
 4.640933034638194E-006  4.755564080593681E-006  4.873026513384426E-006  4.993390268265182E-006 
 5.116727007891186E-006  5.243110164986235E-006  5.372614986061187E-006  5.505318576217029E-006 
 5.641299945049605E-006  5.780640053692358E-006  5.923421863018548E-006  6.069730383034913E-006 
 6.219652723496075E-006  6.373278145766239E-006  6.530698115966801E-006  6.692006359431267E-006 
 6.857298916509024E-006  7.026674199746960E-006  7.200233052480664E-006  7.378078808876946E-006 
 7.560317355456190E-006  7.747057194135806E-006  7.938409506831132E-006  8.134488221649886E-006 
 8.335410080724577E-006  8.541294709718518E-006  8.752264689048605E-006  8.968445626868058E-006 
 9.189966233851594E-006  9.416958399827662E-006  9.649557272303615E-006  9.887901336929471E-006 
 1.013213249995147E-005  1.038239617270033E-005  1.063884135816598E-005  1.090162073971283E-005 
 1.117089077198378E-005  1.144681177405163E-005  1.172954802487074E-005  1.201926786108516E-005 
 1.231614377725389E-005  1.262035252855193E-005  1.293207523600724E-005  1.325149749433653E-005 
 1.357880948244672E-005  1.391420607666315E-005  1.425788696675685E-005  1.461005677483566E-005 
 1.497092517717416E-005  1.534070702905024E-005  1.571962249266791E-005  1.610789716823662E-005 
 1.650576222829218E-005  1.691345455533090E-005  1.733121688284778E-005  1.775929793985405E-005 
 1.819795259896849E-005  1.864744202816290E-005  1.910803384625851E-005  1.958000228226109E-005 
 2.006362833863307E-005  2.055919995859722E-005  2.106701219757462E-005  2.158736739885460E-005 
 2.212057537360634E-005  2.266695358533450E-005  2.322682733889217E-005  2.380052997416277E-005 
 2.438840306452463E-005  2.499079662021888E-005  2.560806929673718E-005  2.624058860836711E-005 
 2.688873114699277E-005  2.755288280632558E-005  2.823343901164144E-005  2.893080495522744E-005 
 2.964539583762350E-005  3.037763711481278E-005  3.112796475154864E-005  3.189682548091081E-005 
 3.268467707028863E-005  3.349198859392531E-005  3.431924071219659E-005  3.516692595778727E-005 
 3.603554902894368E-005  3.692562708995827E-005  3.783769007908159E-005  3.877228102403473E-005 
 3.972995636532738E-005  4.071128628755214E-005  4.171685505885288E-005  4.274726137880851E-005 
 4.380311873486410E-005  4.488505576761428E-005  4.599371664507555E-005  4.712976144620856E-005 
 4.829386655392952E-005  4.948672505781330E-005  5.070904716673938E-005  5.196156063175899E-005 
 5.324501117936392E-005  5.456016295549367E-005  5.590779898049332E-005  5.728872161531241E-005 
 5.870375303921076E-005  6.015373573927883E-005  6.163953301203834E-005  6.316202947743567E-005 
 6.472213160552805E-005  6.632076825618466E-005  6.795889123211249E-005  6.963747584554616E-005 
 7.135752149893110E-005  7.312005227995622E-005  7.492611757127048E-005  7.677679267528110E-005 
 7.867317945436014E-005  8.061640698688189E-005  8.260763223945925E-005  8.464804075577445E-005 
 8.673884736244101E-005  8.888129689229442E-005  9.107666492553379E-005  9.332625854919287E-005 
 9.563141713535957E-005  9.799351313860112E-005  1.004139529131258E-004  1.028941775500798E-004 
 1.054356637355670E-004  1.080399246298350E-004  1.107085107681926E-004  1.134430109841669E-004 
 1.162450533554752E-004  1.191163061733564E-004  1.220584789358369E-004  1.250733233655525E-004 
 1.281626344526824E-004  1.313282515236639E-004  1.345720593362968E-004  1.378959892019029E-004 
 1.413020201351909E-004  1.447921800325293E-004  1.483685468793328E-004  1.520332499872522E-004 
 1.557884712619377E-004  1.596364465021093E-004  1.635794667307093E-004  1.676198795589585E-004 
 1.717600905840646E-004  1.760025648214910E-004  1.803498281725826E-004  1.848044689284463E-004 
 1.893691393109785E-004  1.940465570519586E-004  1.988395070111410E-004  2.037508428343162E-004 
 2.087834886523257E-004  2.139404408220377E-004  2.192247697103428E-004  2.246396215221882E-004 
 2.301882201737845E-004  2.358738692120781E-004  2.416999537816169E-004  2.476699426400148E-004 
 2.537873902232317E-004  2.600559387617360E-004  2.664793204491626E-004  2.730613596642606E-004 
 2.798059752479651E-004  2.867171828365866E-004  2.937990972526589E-004  3.010559349547852E-004 
 3.084920165481668E-004  3.161117693569124E-004  3.239197300600312E-004  3.319205473924999E-004 
 3.401189849131132E-004  3.485199238404583E-004  3.571283659593067E-004  3.659494365985234E-004 
 3.749883876824924E-004  3.842506008582547E-004  3.937415906994575E-004  4.034670079897248E-004 
 4.134326430870851E-004  4.236444293713336E-004  4.341084467767936E-004  4.448309254121872E-004 
 4.558182492698564E-004  4.670769600268266E-004  4.786137609394924E-004  4.904355208347064E-004 
 5.025492781993231E-004  5.149622453708298E-004  5.276818128315077E-004  5.407155536084389E-004 
 5.540712277825568E-004  5.677567871087884E-004  5.817803797503899E-004  5.961503551302290E-004 
 6.108752689019445E-004  6.259638880438138E-004  6.414251960784982E-004  6.572683984216442E-004 
 6.735029278626359E-004  6.901384501808620E-004  7.071848699003327E-004  7.246523361868633E-004 
 7.425512488906820E-004  7.608922647382668E-004  7.796863036773172E-004  7.989445553781522E-004 
 8.186784858959775E-004  8.388998444976082E-004  8.596206706566965E-004  8.808533012219301E-004 
 9.026103777621065E-004  9.249048540928385E-004  9.477500039889202E-004  9.711594290874489E-004 
 9.951470669859051E-004  1.019727199540456E-003  1.044914461369118E-003  1.070723848564914E-003 
 1.097170727624469E-003  1.124270844596798E-003  1.152040334458355E-003  1.180495730719460E-003 
 1.209653975268242E-003  1.239532428457352E-003  1.270148879440251E-003  1.301521556762434E-003 
 1.333669139214460E-003  1.366610766953049E-003  1.400366052896808E-003  1.434955094403357E-003 
 1.470398485235106E-003  1.506717327820418E-003  1.543933245817576E-003  1.582068396989284E-003 
 1.621145486394904E-003  1.661187779908876E-003  1.702219118072627E-003  1.744263930289009E-003 
 1.787347249367151E-003  1.831494726426514E-003  1.876732646169247E-003  1.923087942529637E-003 
 1.970588214710108E-003  2.019261743613445E-003  2.069137508680719E-003  2.120245205145127E-003 
 2.172615261712199E-003  2.226278858676498E-003  2.281267946485808E-003  2.337615264764015E-003 
 2.395354361803670E-003  2.454519614540243E-003  2.515146249019435E-003  2.577270361370076E-003 
 2.640928939295935E-003  2.706159884096713E-003  2.773002033233794E-003  2.841495183454750E-003 
 2.911680114485872E-003  2.983598613313720E-003  3.057293499062756E-003  3.132808648489570E-003 
 3.210189022107107E-003  3.289480690953289E-003  3.370730864019666E-003  3.453987916361061E-003 
 3.539301417895239E-003  3.626722162917261E-003  3.716302200341185E-003  3.808094864689639E-003 
 3.902154807847580E-003  3.998538031601257E-003  4.097301920981875E-003  4.198505278430075E-003 
 4.302208358807324E-003  4.408472905269857E-003  4.517362186030032E-003  4.628941032025117E-003 
 4.743275875515958E-003  4.860434789641400E-003  4.980487528945511E-003  5.103505570910347E-003 
 5.229562158511790E-003  5.358732343827024E-003  5.491093032719763E-003  5.626723030627850E-003 
 5.765703089484248E-003  5.908115955794566E-003  6.054046419902639E-003  6.203581366474371E-003 
 6.356809826226236E-003  6.513823028934025E-003  6.674714457748706E-003  6.839579904855001E-003 
 7.008517528504914E-003  7.181627911459101E-003  7.359014120872019E-003  7.540781769657627E-003 
 7.727039079368146E-003  7.917896944628546E-003  8.113468999160933E-003  8.313871683440065E-003 
 8.519224314021240E-003  8.729649154577395E-003  8.945271488695433E-003  9.166219694466437E-003 
 9.392625320919534E-003  9.624623166346265E-003  9.862351358555222E-003  1.010595143711139E-002 
 1.035556843760798E-002  1.061135097801690E-002  1.087345134717397E-002  1.114202559544912E-002 
 1.141723362765682E-002  1.169923929826001E-002  1.198821050892693E-002  1.228431930849751E-002 
 1.258774199541722E-002  1.289865922270417E-002  1.321725610550483E-002  1.354372233131094E-002 
 1.387825227289417E-002  1.422104510403482E-002  1.457230491810446E-002  1.493224084958158E-002 
 1.530106719856615E-002  1.567900355837074E-002  1.606627494626248E-002  1.646311193743526E-002 
 1.686975080228983E-002  1.728643364710646E-002  1.771340855818998E-002  1.815092974957740E-002 
 1.859925771439189E-002  1.905865937993746E-002  1.952940826662181E-002  2.001178465080725E-002 
 2.050607573168223E-002  2.101257580225484E-002  2.153158642457053E-002  2.206341660925748E-002 
 2.260838299950614E-002  2.316681005959400E-002  2.373903026806578E-002  2.432538431568709E-002 
 2.492622130828456E-002  2.554189897459800E-002  2.617278387927285E-002  2.681925164108911E-002 
 2.748168715662513E-002  2.816048482939445E-002  2.885604880468014E-002  2.956879321015422E-002 
 3.029914240244587E-002  3.104753121978519E-002  3.181440524091523E-002  3.260022105036518E-002 
 3.340544651030898E-002  3.423056103911446E-002  3.507605589678052E-002  3.594243447743077E-002 
 3.683021260902224E-002  3.773991886046673E-002  3.867209485631861E-002  3.962729559927056E-002 
 4.060608980057193E-002  4.160906021864800E-002  4.263680400604676E-002  4.368993306499656E-002 
 4.476907441170130E-002  4.587487054967087E-002  4.700797985224793E-002  4.816907695459947E-002 
 4.935885315537793E-002  5.057801682831557E-002  5.182729384397414E-002  5.310742800192045E-002 
 5.441918147356735E-002  5.576333525596516E-002  5.714068963678796E-002  5.855206467081695E-002 
 5.999830066818469E-002  6.148025869468985E-002  6.299882108444861E-002  6.455489196523397E-002 
 6.614939779677632E-002  6.778328792235462E-002  6.945753513403917E-002  7.117313625184998E-002 
 7.293111271726915E-002  7.473251120138626E-002  7.657840422805919E-002  7.846989081249334E-002 
 8.040809711556123E-002  8.239417711431615E-002  8.442931328903952E-002  8.651471732727985E-002 
 8.865163084526236E-002  9.084132612713973E-002  9.308510688248157E-002  9.538430902247884E-002 
 9.774030145533372E-002  1.001544869012794E-001  1.026283027277417E-001  1.051632218051163E-001 
 1.077607533837034E-001  1.104224439922819E-001  1.131498783588906E-001  1.159446803543549E-001 
 1.188085139591077E-001  1.217430842538980E-001  1.247501384349678E-001  1.278314668543119E-001 
 1.309889040856140E-001  1.342243300165294E-001  1.375396709679371E-001  1.409369008408444E-001 
 1.444180422916146E-001  1.479851679362163E-001  1.516404015842425E-001  1.553859195033717E-001 
 1.592239517151064E-001  1.631567833224689E-001  1.671867558705339E-001  1.713162687405353E-001 
 1.755477805784267E-001  1.798838107587152E-001  1.843269408844544E-001  1.888798163243009E-001 
 1.935451477875097E-001  1.983257129378624E-001  2.032243580474278E-001  2.082439996911980E-001 
 2.133876264835715E-001  2.186583008577158E-001  2.240591608889018E-001  2.295934221628575E-001 
 2.352643796902802E-001  2.410754098686291E-001  2.470299724923907E-001  2.531316128129364E-001 
 2.593839636494178E-001  2.657907475515607E-001  2.723557790160872E-001  2.790829667577837E-001 
 2.859763160367140E-001  2.930399310428196E-001  3.002780173395684E-001  3.076948843678473E-001 
 3.152949480117316E-001  3.230827332276219E-001  3.310628767383577E-001  3.392401297937960E-001 
 3.476193609997096E-001  3.562055592163970E-001  3.650038365290255E-001  3.740194312912989E-001 
 3.832577112442015E-001  3.927241767119197E-001  4.024244638767218E-001  4.123643481344794E-001 
 4.225497475333915E-001  4.329867262974756E-001  4.436814984370183E-001  4.546404314484032E-001 
 4.658700501051951E-001  4.773770403427723E-001  4.891682532392416E-001  5.012507090942696E-001 
 5.136316016088810E-001  5.263183021686149E-001  5.393183642321855E-001  5.526395278287235E-001 
 5.662897241660850E-001  5.802770803529853E-001  5.946099242377171E-001  6.092967893663775E-001 
 6.243464200637301E-001  6.397677766393109E-001  6.555700407222931E-001  6.717626207281350E-001 
 6.883551574601355E-001  7.053575298493855E-001  7.227798608366772E-001  7.406325233993506E-001 
 7.589261467272937E-001  7.776716225514694E-001  7.968801116284769E-001  8.165630503857159E-001 
 8.367321577302463E-001  8.573994420261826E-001  8.785772082442234E-001  9.002780652878667E-001 
 9.225149335004728E-001  9.453010523579388E-001  9.686499883511556E-001  9.925756430634435E-001 
 1.017092261447116E+000  1.042214440304858E+000  1.067957136980374E+000  1.094335678263795E+000 
 1.121365769516908E+000  1.149063504023984E+000  1.177445372573362E+000  1.206528273275942E+000 
 1.236329521625843E+000  1.266866860810017E+000  1.298158472272004E+000  1.330222986537142E+000 