<UPF version="2.0.1">
  <PP_INFO>
    Generated using FHI98PP, converted with fhi2upf.x v.5.0.1
    Author: Abinit web site
    Generation date: 10-Jul-2012, PG
    Pseudopotential type: SL
    Element: Sm
    Functional: SLA-PW

    Suggested minimum cutoff for wavefunctions:   0. Ry
    Suggested minimum cutoff for charge density:   0. Ry
    The Pseudo was generated with a Non-Relativistic Calculation
    L component and cutoff radius for Local Potential:  0   0.0000

    Valence configuration: 
    nl pn  l   occ       Rcut    Rcut US       E pseu
    6s  6  0  2.00      0.000      0.000     0.000000
    6p  6  1  0.00      0.000      0.000     0.000000
    5d  5  2  0.00      0.000      0.000     0.000000
    4f  4  3  6.00      0.000      0.000     0.000000

    Generation configuration: not available.
    Comment:
    samarium, fhi98PP : Trouiller-Martins-type, LDA Ceperley/Alder Perdew/Wang (1992
  </PP_INFO>
  <!--                               -->
  <!-- END OF HUMAN READABLE SECTION -->
  <!--                               -->
  <PP_HEADER generated="Generated using FHI98PP, converted with fhi2upf.x v.5.0.1"
             author="Abinit web site"
             date="10-Jul-2012, PG"
             comment="samarium, fhi98PP : Trouiller-Martins-type, LDA Ceperley/Alder Perdew/Wang (1992"
             element="Sm"
             pseudo_type="SL"
             relativistic="no"
             is_ultrasoft="F"
             is_paw="F"
             is_coulomb="F"
             has_so="F"
             has_wfc="F"
             has_gipaw="F"
             paw_as_gipaw="F"
             core_correction="F"
             functional="SLA-PW"
             z_valence="8.000000000000000E+000"
             total_psenergy="0.000000000000000E+000"
             wfc_cutoff="0.000000000000000E+000"
             rho_cutoff="0.000000000000000E+000"
             l_max="3"
             l_max_rho="0"
             l_local="0"
             mesh_size="557"
             number_of_wfc="4"
             number_of_proj="3"/>
  <PP_MESH dx="2.439988682353512E-002" mesh="557" xmin="-5.075173815233859E+000" rmax="7.857305850825900E+001"
zmesh="6.200000000000000E+001">
    <PP_R type="real" size="557" columns="4">
 1.008064516129000E-004  1.032963709677400E-004  1.058477913306500E-004  1.084622317765100E-004 
 1.111412489013900E-004  1.138864377492600E-004  1.166994327616600E-004  1.195819087508800E-004 
 1.225355818970200E-004  1.255622107698800E-004  1.286635973759000E-004  1.318415882310800E-004 
 1.350980754603900E-004  1.384349979242600E-004  1.418543423729900E-004  1.453581446296000E-004 
 1.489484908019500E-004  1.526275185247600E-004  1.563974182323200E-004  1.602604344626600E-004 
 1.642188671938900E-004  1.682750732135800E-004  1.724314675219500E-004  1.766905247697400E-004 
 1.810547807315600E-004  1.855268338156300E-004  1.901093466108700E-004  1.948050474721600E-004 
 1.996167321447200E-004  2.045472654287000E-004  2.095995828847900E-004  2.147766925820400E-004 
 2.200816768888200E-004  2.255176943079700E-004  2.310879813573800E-004  2.367958544969100E-004 
 2.426447121029800E-004  2.486380364919200E-004  2.547793959932700E-004  2.610724470743100E-004 
 2.675209365170400E-004  2.741287036490100E-004  2.808996826291400E-004  2.878379047900800E-004 
 2.949475010384000E-004  3.022327043140500E-004  3.096978521106000E-004  3.173473890577400E-004 
 3.251858695674600E-004  3.332179605457800E-004  3.414484441712600E-004  3.498822207422900E-004 
 3.585243115946200E-004  3.673798620910100E-004  3.764541446846600E-004  3.857525620583700E-004 
 3.952806503412100E-004  4.050440824046400E-004  4.150486712400300E-004  4.253003734196600E-004 
 4.358052926431300E-004  4.465696833714100E-004  4.575999545506900E-004  4.689026734280900E-004 
 4.804845694617600E-004  4.923525383274700E-004  5.045136460241600E-004  5.169751330809500E-004 
 5.297444188680500E-004  5.428291060140900E-004  5.562369849326400E-004  5.699760384604800E-004 
 5.840544466104500E-004  5.984805914417300E-004  6.132630620503400E-004  6.284106596829800E-004 
 6.439324029771500E-004  6.598375333306900E-004  6.761355204039600E-004  6.928360677579401E-004 
 7.099491186315600E-004  7.274848618617600E-004  7.454537379497400E-004  7.638664452771000E-004 
 7.827339464754400E-004  8.020674749533900E-004  8.218785415847400E-004  8.421789415618800E-004 
 8.629807614184600E-004  8.842963862254900E-004  9.061385069652600E-004  9.285201280873100E-004 
 9.514545752510600E-004  9.749555032597600E-004  9.990369041902800E-004  1.023713115723800E-003 
 1.048998829682200E-003  1.074909100775300E-003  1.101459355564500E-003  1.128665401646900E-003 
 1.156543437067600E-003  1.185110059963100E-003  1.214382278444200E-003  1.244377520721800E-003 
 1.275113645483600E-003  1.306608952527100E-003  1.338882193654500E-003  1.371952583837800E-003 
 1.405839812658600E-003  1.440564056031200E-003  1.476145988215200E-003  1.512606794124100E-003 
 1.549968181939000E-003  1.588252396032900E-003  1.627482230214900E-003  1.667681041301200E-003 
 1.708872763021300E-003  1.751081920268000E-003  1.794333643698600E-003  1.838653684697900E-003 
 1.884068430710000E-003  1.930604920948500E-003  1.978290862495900E-003  2.027154646799600E-003 
 2.077225366575500E-003  2.128532833129900E-003  2.181107594108300E-003  2.234980951682700E-003 
 2.290184981189300E-003  2.346752550224700E-003  2.404717338215200E-003  2.464113856469100E-003 
 2.524977468723900E-003  2.587344412201400E-003  2.651251819182800E-003  2.716737739116600E-003 
 2.783841161272800E-003  2.852602037956200E-003  2.923061308293700E-003  2.995260922608600E-003 
 3.069243867397000E-003  3.145054190921700E-003  3.222737029437500E-003  3.302338634064600E-003 
 3.383906398326000E-003  3.467488886364600E-003  3.553135861857800E-003  3.640898317645700E-003 
 3.730828506091600E-003  3.822979970192000E-003  3.917407575455800E-003  4.014167542569500E-003 
 4.113317480871000E-003  4.214916422648500E-003  4.319024858287900E-003  4.425704772287700E-003 
 4.535019680163200E-003  4.647034666263200E-003  4.761816422519900E-003  4.879433288156100E-003 
 4.999955290373600E-003  5.123454186045800E-003  5.250003504441100E-003  5.379678591000800E-003 
 5.512556652198600E-003  5.648716801507900E-003  5.788240106505100E-003  5.931209637135800E-003 
 6.077710515173000E-003  6.227829964897800E-003  6.381657365030800E-003  6.539284301947100E-003 
 6.700804624205100E-003  6.866314498423000E-003  7.035912466534100E-003  7.209699504457400E-003 
 7.387779082217500E-003  7.570257225548300E-003  7.757242579019400E-003  7.948846470721100E-003 
 8.145182978548000E-003  8.346368998118100E-003  8.552524312371600E-003  8.763771662887200E-003 
 8.980236822960499E-003  9.202048672487599E-003  9.429339274698099E-003  9.662243954783101E-003 
 9.900901380466200E-003  1.014545364456400E-002  1.039604634958400E-002  1.065282869441900E-002 
 1.091595356317100E-002  1.118557761618200E-002  1.146186138330100E-002  1.174496935946900E-002 
 1.203507010264800E-002  1.233233633418300E-002  1.263694504163800E-002  1.294907758416600E-002 
 1.326891980049500E-002  1.359666211956700E-002  1.393249967392000E-002  1.427663241586600E-002 
 1.462926523653800E-002  1.499060808788100E-002  1.536087610765100E-002  1.574028974751000E-002 
 1.612907490427400E-002  1.652746305440900E-002  1.693569139185300E-002  1.735400296923200E-002 
 1.778264684257200E-002  1.822187821958400E-002  1.867195861160700E-002  1.913315598931400E-002 
 1.960574494225000E-002  2.009000684232400E-002  2.058623001132900E-002  2.109470989260900E-002 
 2.161574922695600E-002  2.214965823286200E-002  2.269675479121400E-002  2.325736463455700E-002 
 2.383182154103000E-002  2.442046753309400E-002  2.502365308116100E-002  2.564173731226600E-002 
 2.627508822387900E-002  2.692408290300900E-002  2.758910775071300E-002  2.827055871215600E-002 
 2.896884151234600E-002  2.968437189770100E-002  3.041757588357400E-002  3.116889000789800E-002 
 3.193876159109300E-002  3.272764900239300E-002  3.353602193275200E-002  3.436436167449100E-002 
 3.521316140785100E-002  3.608292649462500E-002  3.697417477904300E-002  3.788743689608500E-002 
 3.882325658741800E-002  3.978219102512700E-002  4.076481114344800E-002  4.177170197869100E-002 
 4.280346301756500E-002  4.386070855409900E-002  4.494406805538500E-002  4.605418653635300E-002 
 4.719172494380100E-002  4.835736054991300E-002  4.955178735549600E-002  5.077571650317600E-002 
 5.202987670080500E-002  5.331501465531500E-002  5.463189551730100E-002  5.598130333657800E-002 
 5.736404152899200E-002  5.878093335475800E-002  6.023282240862000E-002  6.172057312211300E-002 
 6.324507127822900E-002  6.480722453880200E-002  6.640796298491000E-002  6.804823967063700E-002 
 6.972903119050200E-002  7.145133826090801E-002  7.321618631595200E-002  7.502462611795600E-002 
 7.687773438306900E-002  7.877661442233100E-002  8.072239679856300E-002  8.271623999948700E-002 
 8.475933112747500E-002  8.685288660632300E-002  8.899815290550001E-002  9.119640728226500E-002 
 9.344895854213700E-002  9.575714781812800E-002  9.812234936923600E-002  1.005459713986600E-001 
 1.030294568922000E-001  1.055742844774400E-001  1.081819693040300E-001  1.108540639458400E-001 
 1.135921593253000E-001  1.163978856606400E-001  1.192729134364600E-001  1.222189543983400E-001 
 1.252377625719800E-001  1.283311353075000E-001  1.315009143496000E-001  1.347489869340400E-001 
 1.380772869113100E-001  1.414877958980200E-001  1.449825444567000E-001  1.485636133047800E-001 
 1.522331345534000E-001  1.559932929768700E-001  1.598463273134000E-001  1.637945315980400E-001 
 1.678402565285200E-001  1.719859108647700E-001  1.762339628631300E-001  1.805869417458500E-001 
 1.850474392069700E-001  1.896181109553800E-001  1.943016782959800E-001  1.991009297498900E-001 
 2.040187227147100E-001  2.090579851657700E-001  2.142217173993600E-001  2.195129938191300E-001 
 2.249349647664600E-001  2.304908583961900E-001  2.361839825985800E-001  2.420177269687600E-001 
 2.479955648248900E-001  2.541210552760600E-001  2.603978453413800E-001  2.668296721213200E-001 
 2.734203650227100E-001  2.801738480387700E-001  2.870941420853300E-001  2.941853673948400E-001 
 3.014517459694900E-001  3.088976040949400E-001  3.165273749160800E-001  3.243456010765100E-001 
 3.323569374231000E-001  3.405661537774500E-001  3.489781377757500E-001  3.575978977788100E-001 
 3.664305658539500E-001  3.754814008305400E-001  3.847557914310600E-001  3.942592594794000E-001 
 4.039974631885400E-001  4.139762005293000E-001  4.242014126823800E-001  4.346791875756300E-001 
 4.454157635087500E-001  4.564175328674100E-001  4.676910459292400E-001  4.792430147636900E-001 
 4.910803172283500E-001  5.032100010639000E-001  5.156392880901700E-001  5.283755785060000E-001 
 5.414264552951000E-001  5.547996887408900E-001  5.685032410527900E-001  5.825452711067900E-001 
 5.969341393031300E-001  6.116784125439200E-001  6.267868693337501E-001  6.422685050062900E-001 
 6.581325370799500E-001  6.743884107458300E-001  6.910458044912500E-001  7.081146358621800E-001 
 7.256050673679800E-001  7.435275125319700E-001  7.618926420915000E-001  7.807113903511600E-001 
 7.999949616928400E-001  8.197548372466500E-001  8.400027817266400E-001  8.607508504352900E-001 
 8.820113964410400E-001  9.037970779331400E-001  9.261208657580901E-001  9.489960511423100E-001 
 9.724362536055300E-001  9.964554290695800E-001  1.021067878167600E+000  1.046288254758300E+000 
 1.072131574650900E+000  1.098613224544700E+000  1.125748971191000E+000  1.153554970779400E+000 
 1.182047778557700E+000  1.211244358688000E+000  1.241162094347600E+000  1.271818798078000E+000 
 1.303232722390600E+000  1.335422570633600E+000  1.368407508128300E+000  1.402207173579000E+000 
 1.436841690766400E+000  1.472331680528400E+000  1.508698273037400E+000  1.545963120381400E+000 
 1.584148409454800E+000  1.623276875168400E+000  1.663371813985000E+000  1.704457097790500E+000 
 1.746557188105900E+000  1.789697150652100E+000  1.833902670273200E+000  1.879200066229000E+000 
 1.925616307864800E+000  1.973179030669100E+000  2.021916552726600E+000  2.071857891579000E+000 
 2.123032781501000E+000  2.175471691204000E+000  2.229205841976800E+000  2.284267226273600E+000 
 2.340688626762600E+000  2.398503635843600E+000  2.457746675648900E+000  2.518453018537500E+000 
 2.580658808095300E+000  2.644401080655300E+000  2.709717787347500E+000  2.776647816694900E+000 
 2.845231017767300E+000  2.915508223906200E+000  2.987521277036600E+000  3.061313052579500E+000 
 3.136927484978200E+000  3.214409593857100E+000  3.293805510825400E+000  3.375162506942800E+000 
 3.458529020864300E+000  3.543954687679600E+000  3.631490368465300E+000  3.721188180566400E+000 
 3.813101528626400E+000  3.907285136383500E+000  4.003795079252100E+000  4.102688817709700E+000 
 4.204025231507100E+000  4.307864654725300E+000  4.414268911697000E+000  4.523301353815900E+000 
 4.635026897255200E+000  4.749512061617400E+000  4.866825009539300E+000  4.987035587275000E+000 
 5.110215366280700E+000  5.236437685827800E+000  5.365777696667700E+000  5.498312405775400E+000 
 5.634120722198100E+000  5.773283504036400E+000  5.915883606586100E+000  6.062005931668800E+000 
 6.211737478181000E+000  6.365167393892000E+000  6.522387028521200E+000  6.683489988125600E+000 
 6.848572190832300E+000  7.017731923945900E+000  7.191069902467400E+000  7.368689329058300E+000 
 7.550695955486100E+000  7.737198145586600E+000  7.928306939782500E+000  8.124136121195200E+000 
 8.324802283388699E+000  8.530424899788400E+000  8.741126394813200E+000  8.957032216765100E+000 
 9.178270912519199E+000  9.404974204058400E+000  9.637277066898600E+000  9.875317810451000E+000 
 1.011923816036900E+001  1.036918334293000E+001  1.062530217150100E+001  1.088774713513700E+001 
 1.115667448937500E+001  1.143224434926200E+001  1.171462078468900E+001  1.200397191807100E+001 
 1.230047002444700E+001  1.260429163405100E+001  1.291561763741200E+001  1.323463339305600E+001 
 1.356152883786500E+001  1.389649860016000E+001  1.423974211558400E+001  1.459146374583900E+001 
 1.495187290036100E+001  1.532118416100000E+001  1.569961740977600E+001  1.608739795979800E+001 
 1.648475668940500E+001  1.689193017963300E+001  1.730916085507000E+001  1.773669712819000E+001 
 1.817479354725700E+001  1.862371094787400E+001  1.908371660828600E+001  1.955508440851100E+001 
 2.003809499340100E+001  2.053303593973800E+001  2.104020192745000E+001  2.155989491505800E+001 
 2.209242431946000E+001  2.263810720015100E+001  2.319726844799400E+001  2.377024097866000E+001 
 2.435736593083300E+001  2.495899286932400E+001  2.557547999319600E+001  2.620719434902800E+001 
 2.685451204944900E+001  2.751781849707100E+001  2.819750861394800E+001  2.889398707671300E+001 
 2.960766855750800E+001  3.033897797087800E+001  3.108835072675900E+001  3.185623298971000E+001 
 3.264308194455600E+001  3.344936606858600E+001  3.427556541048000E+001  3.512217187611900E+001 
 3.598968952145900E+001  3.687863485263900E+001  3.778953713350000E+001  3.872293870069700E+001 
 3.967939528660400E+001  4.065947635018300E+001  4.166376541603300E+001  4.269286042180900E+001 
 4.374737407422700E+001  4.482793421386100E+001  4.593518418894300E+001  4.706978323841000E+001 
 4.823240688439900E+001  4.942374733444400E+001  5.064451389360400E+001  5.189543338677600E+001 
 5.317725059143000E+001  5.449072868103800E+001  5.583664967946000E+001  5.721581492654200E+001 
 5.862904555522800E+001  6.007718298044200E+001  6.156108940005900E+001  6.308164830824000E+001 
 6.463976502145400E+001  6.623636721748400E+001  6.787240548775600E+001  6.954885390330300E+001 
 7.126671059471499E+001  7.302699834640400E+001  7.483076520556000E+001  7.667908510613800E+001 
 7.857305850825900E+001
    </PP_R>
    <PP_RAB type="real" size="557" columns="4">
 2.459666010436929E-006  2.520419760894755E-006  2.582674128989022E-006  2.646466179974879E-006 
 2.711833894620263E-006  2.778816191817522E-006  2.847452951755251E-006  2.917785039663776E-006 
 2.989854330143307E-006  3.063703732097935E-006  3.139377214280850E-006  3.216919831473472E-006 
 3.296377751310924E-006  3.377798281768263E-006  3.461229899327959E-006  3.546722277841289E-006 
 3.634326318103942E-006  3.724094178161154E-006  3.816079304361696E-006  3.910336463179472E-006 
 4.006921773820061E-006  4.105892741633439E-006  4.207308292351652E-006  4.311228807172685E-006 
 4.417716158710031E-006  4.526833747830181E-006  4.638646541401438E-006  4.753221110974091E-006 
 4.870625672415093E-006  4.990930126523878E-006  5.114206100649046E-006  5.240526991334971E-006 
 5.369968008021033E-006  5.502606217819058E-006  5.638520591399266E-006  5.777792050006895E-006 
 5.920503513641975E-006  6.066739950428843E-006  6.216588427204425E-006  6.370138161356527E-006 
 6.527480573941900E-006  6.688709344118243E-006  6.853920464917950E-006  7.023212300401429E-006 
 7.196685644221468E-006  7.374443779633775E-006  7.556592540990558E-006  7.743240376753225E-006 
 7.934498414058878E-006  8.130480524886222E-006  8.331303393850894E-006  8.537086587679008E-006 
 8.747952626394568E-006  8.964027056266584E-006  9.185438524556419E-006  9.412318856112936E-006 
 9.644803131858884E-006  9.883029769215849E-006  1.012714060451537E-005  1.037728097744693E-005 
 1.063359981758998E-005  1.089624973308432E-005  1.116538710149165E-005  1.144117216289844E-005 
 1.172376911532194E-005  1.201334621247051E-005  1.231007586391856E-005  1.261413473775719E-005 
 1.292570386577980E-005  1.324496875126454E-005  1.357211947942083E-005  1.390735083056261E-005 
 1.425086239607742E-005  1.460285869726057E-005  1.496354930708289E-005  1.533314897496776E-005 
 1.571187775464947E-005  1.609996113518942E-005  1.649763017522864E-005  1.690512164055685E-005 
 1.732267814507857E-005  1.775054829526203E-005  1.818898683815487E-005  1.863825481305733E-005 
 1.909861970693973E-005  1.957035561370131E-005  2.005374339735976E-005  2.054907085927447E-005 
 2.105663290949859E-005  2.157673174236306E-005  2.210967701639944E-005  2.265578603870470E-005 
 2.321538395386054E-005  2.378880393752087E-005  2.437638739477773E-005  2.497848416342923E-005 
 2.559545272226648E-005  2.622766040450523E-005  2.687548361649773E-005  2.753930806182417E-005 
 2.821952897095176E-005  2.891655133653256E-005  2.963079015454519E-005  3.036267067136315E-005 
 3.111262863694513E-005  3.188111056427901E-005  3.266857399521623E-005  3.347548777289890E-005 
 3.430233232088966E-005  3.514959992921398E-005  3.601779504746629E-005  3.690743458513833E-005 
 3.781904821939209E-005  3.875317871041124E-005  3.971038222455809E-005  4.069122866550448E-005 
 4.169630201354147E-005  4.272620067327776E-005  4.378153782990723E-005  4.486294181430459E-005 
 4.597105647711943E-005  4.710654157210337E-005  4.827007314893364E-005  4.946234395571356E-005 
 5.068406385141845E-005  5.193596022854813E-005  5.321877844619550E-005  5.453328227381469E-005 
 5.588025434597884E-005  5.726049662832510E-005  5.867483089504350E-005  6.012409921815071E-005 
 6.160916446883934E-005  6.313091083122015E-005  6.469024432875192E-005  6.628809336367172E-005 
 6.792540926975490E-005  6.960316687871692E-005  7.132236510062078E-005  7.308402751860722E-005 
 7.488920299831603E-005  7.673896631237430E-005  7.863441878029078E-005  8.057668892416381E-005 
 8.256693314059075E-005  8.460633638916207E-005  8.669611289797425E-005  8.883750688655452E-005 
 9.103179330665365E-005  9.328027860132647E-005  9.558430148278063E-005  9.794523372940390E-005 
 1.003644810025210E-004  1.028434836832829E-004  1.053837177302596E-004  1.079866955581992E-004 
 1.106539669384865E-004  1.133871199218664E-004  1.161877817839364E-004  1.190576199939987E-004 
 1.219983432078515E-004  1.250117022850848E-004  1.280994913315256E-004  1.312635487674144E-004 
 1.345057584219715E-004  1.378280506549941E-004  1.412324035061713E-004  1.447208438727743E-004 
 1.482954487164305E-004  1.519583462997270E-004  1.557117174533309E-004  1.595577968744291E-004 
 1.634988744572252E-004  1.675372966563195E-004  1.716754678837319E-004  1.759158519404578E-004 
 1.802609734833872E-004  1.847134195284275E-004  1.892758409907811E-004  1.939509542632514E-004 
 1.987415428335559E-004  2.036504589415439E-004  2.086806252773996E-004  2.138350367217519E-004 
 2.191167621287788E-004  2.245289461533590E-004  2.300748111233484E-004  2.357576589580940E-004 
 2.415808731343579E-004  2.475479207007835E-004  2.536623543420750E-004  2.599278144943310E-004 
 2.663480315123374E-004  2.729268278907086E-004  2.796681205395921E-004  2.865759231169314E-004 
 2.936543484179224E-004  3.009076108238352E-004  3.083400288112005E-004  3.159560275228260E-004 
 3.237601414026422E-004  3.317570168952820E-004  3.399514152125880E-004  3.483482151683432E-004 
 3.569524160830039E-004  3.657691407602666E-004  3.748036385370291E-004  3.840612884088942E-004 
 3.935476022326062E-004  4.032682280077377E-004  4.132289532395312E-004  4.234357083845533E-004 
 4.338945703816510E-004  4.446117662700893E-004  4.555936768969428E-004  4.668468407163048E-004 
 4.783779576819961E-004  4.901938932367518E-004  5.023016823996897E-004  5.147085339549663E-004 
 5.274218347436432E-004  5.404491540618157E-004  5.537982481671501E-004  5.674770648968790E-004 
 5.814937483998184E-004  5.958566439853075E-004  6.105743030917343E-004  6.256554883781081E-004 
 6.411091789410480E-004  6.569445756608965E-004  6.731711066797128E-004  6.897984330147111E-004 
 7.068364543101684E-004  7.242953147316309E-004  7.421854090054969E-004  7.605173886079259E-004 
 7.793021681065396E-004  7.985509316587713E-004  8.182751396707404E-004  8.384865356206082E-004 
 8.591971530504391E-004  8.804193227307869E-004  9.021656800022559E-004  9.244491722983028E-004 
 9.472830668540635E-004  9.706809586053534E-004  9.946567782829145E-004  1.019224800706498E-003 
 1.044399653283957E-003  1.070196324720074E-003  1.096630173940654E-003  1.123716939236988E-003 
 1.151472747636144E-003  1.179914124502759E-003  1.209058003377981E-003  1.238921736061399E-003 
 1.269523102942129E-003  1.300880323584802E-003  1.333012067577340E-003  1.365937465646492E-003 
 1.399676121047973E-003  1.434248121237856E-003  1.469674049832418E-003  1.505974998863281E-003 
 1.543172581335199E-003  1.581288944094197E-003  1.620346781013314E-003  1.660369346504336E-003 
 1.701380469362999E-003  1.743404566956280E-003  1.786466659760090E-003  1.830592386256164E-003 
 1.875808018196678E-003  1.922140476246141E-003  1.969617346009431E-003  2.018266894455852E-003 
 2.068118086748927E-003  2.119200603491610E-003  2.171544858397874E-003  2.225182016400280E-003 
 2.280144012205368E-003  2.336463569306846E-003  2.394174219468731E-003  2.453310322689703E-003 
 2.513907087659971E-003  2.576000592725237E-003  2.639627807365482E-003  2.704826614207421E-003 
 2.771635831578289E-003  2.840095236618398E-003  2.910245588962925E-003  2.982128655010296E-003 
 3.055787232789075E-003  3.131265177438772E-003  3.208607427321626E-003  3.287860030776589E-003 
 3.369070173536751E-003  3.452286206823125E-003  3.537557676131629E-003  3.624935350732068E-003 
 3.714471253894954E-003  3.806218693866184E-003  3.900232295604711E-003  3.996568033306123E-003 
 4.095283263728990E-003  4.196436760342987E-003  4.300088748323464E-003  4.406300940407070E-003 
 4.515136573635063E-003  4.626660447003797E-003  4.740938960044842E-003  4.858040152357933E-003 
 4.978033744121118E-003  5.100991177601073E-003  5.226985659687708E-003  5.356092205482136E-003 
 5.488387682957484E-003  5.623950858726495E-003  5.762862444937141E-003  5.905205147326968E-003 
 6.051063714465984E-003  6.200524988213176E-003  6.353677955422074E-003  6.510613800921193E-003 
 6.671425961803785E-003  6.836210183060315E-003  7.005064574581964E-003  7.178089669574196E-003 
 7.355388484412615E-003  7.537066579977695E-003  7.723232124503022E-003  7.913995957978315E-003 
 8.109471658140384E-003  8.309775608096438E-003  8.515027065616345E-003  8.725348234137046E-003 
 8.940864335520313E-003  9.161703684607602E-003  9.387997765617547E-003  9.619881310428126E-003 
 9.857492378795673E-003  1.010097244055200E-002  1.035046645983379E-002  1.060612298139157E-002 
 1.086809421903199E-002  1.113653614624193E-002  1.141160858905422E-002  1.169347532120381E-002 
 1.198230416163746E-002  1.227826707443015E-002  1.258154027116837E-002  1.289230431586630E-002 
 1.321074423246824E-002  1.353704961501023E-002  1.387141474050098E-002  1.421403868459126E-002 
 1.456512544010072E-002  1.492488403847127E-002  1.529352867422140E-002  1.567127883247458E-002 
 1.605835941963681E-002  1.645500089730197E-002  1.686143941946528E-002  1.727791697312598E-002 
 1.770468152236229E-002  1.814198715596466E-002  1.859009423871675E-002  1.904926956641305E-002 
 1.951978652470361E-002  2.000192525186371E-002  2.049597280558469E-002  2.100222333388268E-002 
 2.152097825022955E-002  2.205254641301037E-002  2.259724430941176E-002  2.315539624385411E-002 
 2.372733453107743E-002  2.431339969399488E-002  2.491394066643659E-002  2.552931500089660E-002 
 2.615988908142045E-002  2.680603834172966E-002  2.746814748877150E-002  2.814661073174372E-002 
 2.884183201681898E-002  2.955422526763258E-002  3.028421463174326E-002  3.103223473314767E-002 
 3.179873093105821E-002  3.258415958505418E-002  3.338898832680624E-002  3.421369633847667E-002 
 3.505877463803701E-002  3.592472637159823E-002  3.681206711297545E-002  3.772132517066536E-002 
 3.865304190238029E-002  3.960777203737071E-002  4.058608400669231E-002  4.158856028165934E-002 
 4.261579772061570E-002  4.366840792431453E-002  4.474701760004492E-002  4.585226893476731E-002 
 4.698481997745468E-002  4.814534503089878E-002  4.933453505316132E-002  5.055309806897570E-002 
 5.180175959127937E-002  5.308126305318215E-002  5.439237025059724E-002  5.573586179578634E-002 
 5.711253758214328E-002  5.852321726042133E-002  5.996874072675284E-002  6.144996862270540E-002 
 6.296778284768437E-002  6.452308708402330E-002  6.611680733499901E-002  6.774989247617144E-002 
 6.942331482033377E-002  7.113807069639717E-002  7.289518104259615E-002  7.469569201435063E-002 
 7.654067560710474E-002  7.843123029459872E-002  8.036848168287605E-002  8.235358318044339E-002 
 8.438771668500065E-002  8.647209328711901E-002  8.860795399131118E-002  9.079657045489674E-002 
 9.303924574513293E-002  9.533731511503839E-002  9.769214679837808E-002  1.001051428242998E-001 
 1.025777398520593E-001  1.051114100264045E-001  1.077076618540564E-001  1.103680411018512E-001 
 1.130941317170680E-001  1.158875567704795E-001  1.187499794227092E-001  1.216831039144520E-001 
 1.246886765811392E-001  1.277684868926925E-001  1.309243685189408E-001  1.341582004213589E-001 
 1.374719079717676E-001  1.408674640986704E-001  1.443468904619076E-001  1.479122586563173E-001 
 1.515656914451279E-001  1.553093640238208E-001  1.591455053152108E-001  1.630763992964947E-001 
 1.671043863591181E-001  1.712318647021893E-001  1.754612917603343E-001  1.797951856668135E-001 
 1.842361267527852E-001  1.887867590835789E-001  1.934497920329411E-001  1.982280018961565E-001 
 2.031242335429910E-001  2.081414021115029E-001  2.132824947436577E-001  2.185505723638263E-001 
 2.239487715012129E-001  2.294803061572923E-001  2.351484697193763E-001  2.409566369214450E-001 
 2.469082658534013E-001  2.530069000199776E-001  2.592561704504864E-001  2.656597978606116E-001 
 2.722215948677715E-001  2.789454682609917E-001  2.858354213270438E-001  2.928955562338262E-001 
 3.001300764727931E-001  3.075432893616750E-001  3.151396086089069E-001  3.229235569415450E-001 
 3.308997687980137E-001  3.390729930873182E-001  3.474480960165762E-001  3.560300639881874E-001 
 3.648240065686902E-001  3.738351595309389E-001  3.830688879713360E-001  3.925306895042410E-001 
 4.022261975349955E-001  4.121611846141025E-001  4.223415658740724E-001  4.327734025511564E-001 
 4.434629055941872E-001  4.544164393623575E-001  4.656405254145959E-001  4.771418463923446E-001 
 4.889272499982301E-001  5.010037530731863E-001  5.133785457741055E-001  5.260589958547255E-001 
 5.390526530523390E-001  5.523672535827400E-001  5.660107247462157E-001  5.799911896474607E-001 
 5.943169720317554E-001  6.089966012409257E-001  6.240388172915692E-001  6.394525760786725E-001 
 6.552470547078157E-001  6.714316569591138E-001  6.880160188859878E-001  7.050100145524836E-001 
 7.224237619119346E-001  7.402676288311484E-001  7.585522392632854E-001  7.772884795730899E-001 
 7.964875050185493E-001  8.161607463924944E-001  8.363199168283871E-001  8.569770187740517E-001 
 8.781443511377675E-001  8.998345166108694E-001  9.220604291711778E-001  9.448353217716949E-001 
 9.681727542194505E-001  9.920866212486680E-001  1.016591160793522E+000  1.041700962465121E+000 
 1.067430976237993E+000  1.093796521351086E+000  1.120813295428449E+000  1.148497383825534E+000 
 1.176865269206032E+000  1.205933841355429E+000  1.235720407236890E+000  1.266242701295640E+000 
 1.297518896017658E+000  1.329567612749286E+000  1.362407932784203E+000  1.396059408723956E+000 
 1.430542076119448E+000  1.465876465399595E+000  1.502083614094967E+000  1.539185079363102E+000 
 1.577202950823382E+000  1.616159863708722E+000  1.656079012342330E+000  1.696984163947172E+000 
 1.738899672796677E+000  1.781850494714744E+000  1.825862201934194E+000  1.870960998321985E+000 
 1.917173734980523E+000
    </PP_RAB>
  </PP_MESH>
  <PP_LOCAL type="real" size="557" columns="4">
-1.048939068107700E+001 -1.048942464820220E+001 -1.048945779656220E+001 -1.048949014589300E+001 
-1.048952171545520E+001 -1.048955252404440E+001 -1.048958259000360E+001 -1.048961193123380E+001 
-1.048964056520400E+001 -1.048966850896260E+001 -1.048969577914660E+001 -1.048972239199240E+001 
-1.048974836334500E+001 -1.048977370866700E+001 -1.048979844304860E+001 -1.048982258121640E+001 
-1.048984613754180E+001 -1.048986912604980E+001 -1.048989156042720E+001 -1.048991345403120E+001 
-1.048993481989700E+001 -1.048995567074520E+001 -1.048997601899020E+001 -1.048999587674700E+001 