<UPF version="2.0.1">
  <PP_INFO>
    Generated using FHI98PP, converted with fhi2upf.x v.5.0.1
    Author: Abinit web site
    Generation date: 10-Jul-2012, PG
    Pseudopotential type: SL
    Element: Sr
    Functional: SLA-PW

    Suggested minimum cutoff for wavefunctions:   0. Ry
    Suggested minimum cutoff for charge density:   0. Ry
    The Pseudo was generated with a Non-Relativistic Calculation
    L component and cutoff radius for Local Potential:  0   0.0000

    Valence configuration: 
    nl pn  l   occ       Rcut    Rcut US       E pseu
    5s  5  0  2.00      0.000      0.000     0.000000
    5p  5  1  0.00      0.000      0.000     0.000000
    4d  4  2  0.00      0.000      0.000     0.000000
    4f  4  3  0.00      0.000      0.000     0.000000

    Generation configuration: not available.
    Comment:
    strontium, fhi98PP : Trouiller-Martins-type, LDA Ceperley/Alder Perdew/Wang (199
  </PP_INFO>
  <!--                               -->
  <!-- END OF HUMAN READABLE SECTION -->
  <!--                               -->
  <PP_HEADER generated="Generated using FHI98PP, converted with fhi2upf.x v.5.0.1"
             author="Abinit web site"
             date="10-Jul-2012, PG"
             comment="strontium, fhi98PP : Trouiller-Martins-type, LDA Ceperley/Alder Perdew/Wang (199"
             element="Sr"
             pseudo_type="SL"
             relativistic="no"
             is_ultrasoft="F"
             is_paw="F"
             is_coulomb="F"
             has_so="F"
             has_wfc="F"
             has_gipaw="F"
             paw_as_gipaw="F"
             core_correction="T"
             functional="SLA-PW"
             z_valence="2.000000000000000E+000"
             total_psenergy="0.000000000000000E+000"
             wfc_cutoff="0.000000000000000E+000"
             rho_cutoff="0.000000000000000E+000"
             l_max="3"
             l_max_rho="0"
             l_local="0"
             mesh_size="537"
             number_of_wfc="4"
             number_of_proj="3"/>
  <PP_MESH dx="2.439988682353512E-002" mesh="537" xmin="-5.075173815233804E+000" rmax="7.869497965349299E+001"
zmesh="3.800000000000000E+001">
    <PP_R type="real" size="537" columns="4">
 1.644736842105300E-004  1.685361842105300E-004  1.726990279605300E-004  1.769646939511500E-004 
 1.813357218917400E-004  1.858147142224700E-004  1.904043376637700E-004  1.951073248040600E-004 
 1.999264757267200E-004  2.048646596771700E-004  2.099248167712000E-004  2.151099597454500E-004 
 2.204231757511600E-004  2.258676281922100E-004  2.314465586085600E-004  2.371632886061900E-004 
 2.430212218347600E-004  2.490238460140800E-004  2.551747350106300E-004  2.614775509653900E-004 
 2.679360464742400E-004  2.745540668221500E-004  2.813355522726600E-004  2.882845404137900E-004 
 2.954051685620100E-004  3.027016762255000E-004  3.101784076282700E-004  3.178398142966800E-004 
 3.256904577098100E-004  3.337350120152400E-004  3.419782668120200E-004  3.504251300022800E-004 
 3.590806307133300E-004  3.679499222919500E-004  3.770382853725600E-004  3.863511310212700E-004 
 3.958940039574900E-004  4.056725858552400E-004  4.156926987258700E-004  4.259603083844000E-004 
 4.364815280014900E-004  4.472626217431300E-004  4.583100085001800E-004  4.696302657101400E-004 
 4.812301332731800E-004  4.931165175650200E-004  5.052964955488799E-004  5.177773189889401E-004 
 5.305664187679600E-004  5.436714093115300E-004  5.571000931215300E-004  5.708604654216300E-004 
 5.849607189175400E-004  5.994092486748100E-004  6.142146571170700E-004  6.293857591478700E-004 
 6.449315873988200E-004  6.608613976075700E-004  6.771846741284800E-004  6.939111355794500E-004 
 7.110507406282600E-004  7.286136939217800E-004  7.466104521616500E-004  7.650517303300400E-004 
 7.839485080691900E-004  8.033120362185000E-004  8.231538435131001E-004  8.434857434478700E-004 
 8.643198413110300E-004  8.856685413914200E-004  9.075445543637900E-004  9.299609048565700E-004 
 9.529309392065300E-004  9.764683334049301E-004  1.000587101240000E-003  1.025301602640700E-003 
 1.050626552225900E-003  1.076577028065900E-003  1.103168480659100E-003  1.130416742131400E-003 
 1.158338035662000E-003  1.186948985142900E-003  1.216266625075900E-003  1.246308410715300E-003 
 1.277092228459900E-003  1.308636406502900E-003  1.340959725743500E-003  1.374081430969400E-003 
 1.408021242314300E-003  1.442799366999500E-003  1.478436511364400E-003  1.514953893195100E-003 
 1.552373254357000E-003  1.590716873739600E-003  1.630007580521000E-003  1.670268767759800E-003 
 1.711524406323500E-003  1.753799059159700E-003  1.797117895921000E-003  1.841506707950200E-003 
 1.886991923636600E-003  1.933600624150400E-003  1.981360559566900E-003  2.030300165388200E-003 
 2.080448579473300E-003  2.131835659386300E-003  2.184492000173100E-003  2.238448952577400E-003 
 2.293738641706100E-003  2.350393986156200E-003  2.408448717614300E-003  2.467937400939300E-003 
 2.528895454742500E-003  2.591359172474700E-003  2.655365744034800E-003  2.720953277912500E-003 
 2.788160823876900E-003  2.857028396226700E-003  2.927596997613500E-003  2.999908643454500E-003 
 3.074006386947800E-003  3.149934344705500E-003  3.227737723019700E-003  3.307462844778300E-003 
 3.389157177044300E-003  3.472869359317300E-003  3.558649232492400E-003  3.646547868535000E-003 
 3.736617600887800E-003  3.828912055629700E-003  3.923486183403800E-003  4.020396292133800E-003 
 4.119700080549600E-003  4.221456672539100E-003  4.325726652350800E-003  4.432572100663900E-003 
 4.542056631550300E-003  4.654245430349600E-003  4.769205292479200E-003  4.887004663203500E-003 
 5.007713678384600E-003  5.131404206240700E-003  5.258149890134800E-003  5.388026192421200E-003 
 5.521110439374000E-003  5.657481867226500E-003  5.797221669347000E-003  5.940413044579900E-003 
 6.087141246781000E-003  6.237493635576500E-003  6.391559728375200E-003  6.549431253666100E-003 
 6.711202205631600E-003  6.876968900110700E-003  7.046830031943500E-003  7.220886733732500E-003 
 7.399242636055700E-003  7.582003929166200E-003  7.769279426216700E-003  7.961180628044200E-003 
 8.157821789556900E-003  8.359319987759000E-003  8.565795191456600E-003  8.777370332685599E-003 
 8.994171379902900E-003  9.216327412986501E-003  9.443970700087300E-003  9.677236776379401E-003 
 9.916264524756000E-003  1.016119625851700E-002  1.041217780610300E-002  1.066935859791400E-002 
 1.093289175528200E-002  1.120293418163800E-002  1.147964665592400E-002  1.176319392832500E-002 
 1.205374481835500E-002  1.235147231536800E-002  1.265655368155800E-002  1.296917055749200E-002 
 1.328950907026200E-002  1.361775994429800E-002  1.395411861492200E-002  1.429878534471100E-002 
 1.465196534272500E-002  1.501386888669000E-002  1.538471144819200E-002  1.576471382096200E-002 
 1.615410225234000E-002  1.655310857797200E-002  1.696197035984800E-002  1.738093102773700E-002 
 1.781024002412200E-002  1.825015295271700E-002  1.870093173065000E-002  1.916284474439700E-002 
 1.963616700958300E-002  2.012118033472000E-002  2.061817348898800E-002  2.112744237416600E-002 
 2.164929020080700E-002  2.218402766876700E-002  2.273197315218600E-002  2.329345288904500E-002 
 2.386880117540400E-002  2.445836056443700E-002  2.506248207037800E-002  2.568152537751700E-002 
 2.631585905434100E-002  2.696586077298400E-002  2.763191753407600E-002  2.831442589716800E-002 
 2.901379221682800E-002  2.973043288458400E-002  3.046477457683300E-002  3.121725450888100E-002 
 3.198832069525000E-002  3.277843221642300E-002  3.358805949216800E-002  3.441768456162500E-002 
 3.526780137029700E-002  3.613891606414300E-002  3.703154729092800E-002  3.794622650901400E-002 
 3.888349830378600E-002  3.984392071189000E-002  4.082806555347300E-002  4.183651877264400E-002 
 4.286988078632900E-002  4.392876684175100E-002  4.501380738274200E-002  4.612564842509600E-002 
 4.726495194119600E-002  4.843239625414300E-002  4.962867644162100E-002  5.085450474972900E-002 
 5.211061101704700E-002  5.339774310916800E-002  5.471666736396400E-002  5.606816904785400E-002 
 5.745305282333600E-002  5.887214322807300E-002  6.032628516580600E-002  6.181634440940200E-002 
 6.334320811631400E-002  6.490778535678700E-002  6.651100765509900E-002  6.815382954418001E-002 
 6.983722913392200E-002  7.156220869352900E-002  7.332979524826000E-002  7.514104119089200E-002 
 7.699702490830700E-002  7.889885142354200E-002  8.084765305370301E-002  8.284459008413000E-002 
 8.489085145920799E-002  8.698765549025000E-002  8.913625058085900E-002  9.133791597020700E-002 
 9.359396249467100E-002  9.590573336828900E-002  9.827460498248600E-002  1.007019877255500E-001 
 1.031893268223700E-001  1.057381031948900E-001  1.083498343438000E-001  1.110260752520900E-001 
 1.137684193108200E-001  1.165784992678000E-001  1.194579881997100E-001  1.224086005082400E-001 
 1.254320929408000E-001  1.285302656364400E-001  1.317049631976500E-001  1.349580757886400E-001 
 1.382915402606200E-001  1.417073413050500E-001  1.452075126352900E-001  1.487941381973800E-001 
 1.524693534108600E-001  1.562353464401000E-001  1.600943594971700E-001  1.640486901767500E-001 
 1.681006928241200E-001  1.722527799368800E-001  1.765074236013200E-001  1.808671569642700E-001 
 1.853345757412900E-001  1.899123397621000E-001  1.946031745542200E-001  1.994098729657100E-001 
 2.043352968279600E-001  2.093823786596100E-001  2.145541234125100E-001  2.198536102607900E-001 
 2.252839944342400E-001  2.308485090967600E-001  2.365504672714500E-001  2.423932638130600E-001 
 2.483803774292400E-001  2.545153727517400E-001  2.608019024587100E-001  2.672437094494400E-001 
 2.738446290728400E-001  2.806085914109400E-001  2.875396236187900E-001  2.946418523221700E-001 
 3.019195060745300E-001  3.093769178745700E-001  3.170185277460700E-001  3.248488853814000E-001 
 3.328726528503200E-001  3.410946073757300E-001  3.495196441779100E-001  3.581527793891000E-001 
 3.669991530400100E-001  3.760640321201000E-001  3.853528137134700E-001  3.948710282121900E-001 
 4.046243426090300E-001  4.146185638714700E-001  4.248596423991000E-001  4.353536755663600E-001 
 4.461069113528400E-001  4.571257520632600E-001  4.684167581392200E-001  4.799866520652600E-001 
 4.918423223712700E-001  5.039908277338400E-001  5.164394011788700E-001  5.291954543879900E-001 
 5.422665821113700E-001  5.556605666895200E-001  5.693853826867500E-001  5.834492016391100E-001 
 5.978603969196000E-001  6.126275487235100E-001  6.277594491769900E-001  6.432651075716600E-001 
 6.591537557286800E-001  6.754348534951800E-001  6.921180943765100E-001  7.092134113076100E-001 
 7.267309825669001E-001  7.446812378363100E-001  7.630748644108600E-001  7.819228135618100E-001 
 8.012363070567901E-001  8.210268438410900E-001  8.413062068839700E-001  8.620864701940000E-001 
 8.833800060077900E-001  9.051994921561800E-001  9.275579196124401E-001  9.504686002268700E-001 
 9.739451746524700E-001  9.980016204663900E-001  1.022652260491900E+000  1.047911771326100E+000 
 1.073795192077800E+000  1.100317933322100E+000  1.127495786275200E+000  1.155344932196200E+000 
 1.183881952021400E+000  1.213123836236400E+000  1.243087994991400E+000  1.273792268467700E+000 
 1.305254937498800E+000  1.337494734455100E+000  1.370530854396100E+000  1.404382966499700E+000 
 1.439071225772200E+000  1.474616285048800E+000  1.511039307289500E+000  1.548361978179600E+000 
 1.586606519040600E+000  1.625795700060900E+000  1.665952853852400E+000  1.707101889342600E+000 
 1.749267306009300E+000  1.792474208467700E+000  1.836748321416900E+000  1.882116004955900E+000 
 1.928604270278300E+000  1.976240795754200E+000  2.025053943409300E+000  2.075072775811500E+000 
 2.126327073374100E+000  2.178847352086400E+000  2.232664881682900E+000  2.287811704260500E+000 
 2.344320653355700E+000  2.402225373493600E+000  2.461560340218900E+000  2.522360880622300E+000 
 2.584663194373700E+000  2.648504375274700E+000  2.713922433344000E+000  2.780956317447600E+000 
 2.849645938488600E+000  2.920032193169200E+000  2.992156988340500E+000  3.066063265952500E+000 
 3.141795028621500E+000  3.219397365828500E+000  3.298916480764500E+000  3.380399717839300E+000 
 3.463895590870000E+000  3.549453811964500E+000  3.637125321120000E+000  3.726962316551600E+000 
 3.819018285770500E+000  3.913348037429000E+000  4.010007733953500E+000  4.109054924982100E+000 
 4.210548581629200E+000  4.314549131595400E+000  4.421118495145900E+000  4.530320121976000E+000 
 4.642219028988800E+000  4.756881839004800E+000  4.874376820428200E+000  4.994773927892800E+000 
 5.118144843911700E+000  5.244563021556400E+000  5.374103728188800E+000  5.506844090275100E+000 
 5.642863139304900E+000  5.782241858845700E+000  5.925063232759200E+000  6.071412294608300E+000 
 6.221376178285100E+000  6.375044169888800E+000  6.532507760885000E+000  6.693860702578900E+000 
 6.859199061932600E+000  7.028621278762300E+000  7.202228224347800E+000  7.380123261489200E+000 
 7.562412306047900E+000  7.749203890007300E+000  7.940609226090500E+000  8.136742273974900E+000 
 8.337719808142101E+000  8.543661487403201E+000  8.754689926142101E+000  8.970930767317800E+000 
 9.192512757270499E+000  9.419567822375100E+000  9.652231147587800E+000  9.890641256933201E+000 
 1.013494009597900E+001  1.038527311635000E+001  1.064178936232400E+001  1.090464155957300E+001 
 1.117398620609500E+001  1.144998366538500E+001  1.173279826192000E+001  1.202259837899000E+001 
 1.231955655895100E+001  1.262384960595700E+001  1.293565869122400E+001  1.325516946089700E+001 
 1.358257214658200E+001  1.391806167860200E+001  1.426183780206400E+001  1.461410519577500E+001 
 1.497507359411000E+001  1.534495791188500E+001  1.572397837230800E+001  1.611236063810400E+001 
 1.651033594586500E+001  1.691814124372800E+001  1.733601933244800E+001  1.776421900996000E+001 
 1.820299521950600E+001  1.865260920142800E+001  1.911332864870300E+001  1.958542786632600E+001 
 2.006918793462400E+001  2.056489687660900E+001  2.107284982946200E+001  2.159334922024900E+001 
 2.212670494598900E+001  2.267323455815500E+001  2.323326345174200E+001  2.380712505900000E+001 
 2.439516104795700E+001  2.499772152584200E+001  2.561516524753000E+001  2.624785982914400E+001 
 2.689618196692400E+001  2.756051766150700E+001  2.824126244774600E+001  2.893882163020500E+001 
 2.965361052447100E+001  3.038605470442600E+001  3.113659025562500E+001  3.190566403493900E+001 
 3.269373393660200E+001  3.350126916483600E+001  3.432875051320800E+001  3.517667065088400E+001 
 3.604553441596100E+001  3.693585911603500E+001  3.784817483620100E+001  3.878302475465500E+001 
 3.974096546609500E+001  4.072256731310800E+001  4.172841472574100E+001  4.275910656946700E+001 
 4.381525650173300E+001  4.489749333732600E+001  4.600646142275800E+001  4.714282101990000E+001 
 4.830724869909200E+001  4.950043774195900E+001  5.072309855418500E+001  5.197595908847400E+001 
 5.325976527795900E+001  5.457528148032500E+001  5.592329093288900E+001  5.730459621893100E+001 
 5.872001974553900E+001  6.017040423325300E+001  6.165661321781500E+001  6.317953156429500E+001 
 6.474006599393300E+001  6.633914562398300E+001  6.797772252089500E+001  6.965677226716200E+001 
 7.137729454216000E+001  7.314031371735200E+001  7.494687946617000E+001  7.679806738898500E+001 
 7.869497965349299E+001
    </PP_R>
    <PP_RAB type="real" size="537" columns="4">
 4.013139280186788E-006  4.112263820407399E-006  4.213836736771459E-006  4.317918504169590E-006 
 4.424571091222495E-006  4.533857997175790E-006  4.645844289706153E-006  4.760596643661771E-006 
 4.878183380760209E-006  4.998674510264988E-006  5.122141770668628E-006  5.248658672404176E-006 
 5.378300541612495E-006  5.511144564990235E-006  5.647269835745553E-006  5.786757400688433E-006 
 5.929690308485366E-006  6.076153659104989E-006  6.226234654484937E-006  6.380022650450653E-006 
 6.537609209916903E-006  6.699088157401760E-006  6.864555634889653E-006  7.034110159071312E-006 
 7.207852680000359E-006  7.385886641196573E-006  7.568318041234131E-006  7.755255496852412E-006 
 7.946810307624715E-006  8.143096522222989E-006  8.344231006321985E-006  8.550333512178215E-006 
 8.761526749928862E-006  8.977936460652124E-006  9.199691491230201E-006  9.426923871063778E-006 
 9.659768890678921E-006  9.898365182278691E-006  1.014285480228111E-005  1.039338331589748E-005 
 1.065009988380003E-005  1.091315735092997E-005  1.118271233749781E-005  1.145892533223414E-005 
 1.174196078794031E-005  1.203198721940226E-005  1.232917730372159E-005  1.263370798312358E-005 
 1.294576057030656E-005  1.326552085639317E-005  1.359317922154621E-005  1.392893074831836E-005 
 1.427297533780172E-005  1.462551782864558E-005  1.498676811901294E-005  1.535694129155276E-005 
 1.573625774145406E-005  1.612494330766795E-005  1.652322940736743E-005  1.693135317372931E-005 
 1.734955759712037E-005  1.777809166976929E-005  1.821721053401264E-005  1.866717563420269E-005 
 1.912825487236745E-005  1.960072276771495E-005  2.008486062007758E-005  2.058095667739341E-005 
 2.108930630732497E-005  2.161021217311608E-005  2.214398441379209E-005  2.269094082881262E-005 
 2.325140706728436E-005  2.382571682184625E-005  2.441421202734508E-005  2.501724306442226E-005 
 2.563516896811287E-005  2.626835764162576E-005  2.691718607537324E-005  2.758204057143544E-005 
 2.826331697354879E-005  2.896142090279663E-005  2.967676799909499E-005  3.040978416867325E-005 
 3.116090583763782E-005  3.193058021182846E-005  3.271926554306010E-005  3.352743140197455E-005 
 3.435555895760224E-005  3.520414126385592E-005  3.607368355307346E-005  3.696470353683435E-005 
 3.787773171419370E-005  3.881331168753384E-005  3.977200048621671E-005  4.075436889822459E-005 
 4.176100181001154E-005  4.279249855471906E-005  4.384947326902197E-005  4.493255525876562E-005 
 4.604238937365787E-005  4.717963639118663E-005  4.834497341004857E-005  4.953909425327672E-005 
 5.076270988133294E-005  5.201654881540208E-005  5.330135757114150E-005  5.461790110314929E-005 
 5.596696326039802E-005  5.734934725292886E-005  5.876587613007722E-005  6.021739327048833E-005 
 6.170476288426938E-005  6.322887052751231E-005  6.479062362954126E-005  6.639095203319190E-005 
 6.803080854841080E-005  6.971116951955754E-005  7.143303540669062E-005  7.319743138123458E-005 
 7.500540793635043E-005  7.685804151238046E-005  7.875643513773563E-005  8.070171908563802E-005 
 8.269505154705271E-005  8.473761932026505E-005  8.683063851747469E-005  8.897535528885722E-005 
 9.117304656449165E-005  9.342502081463389E-005  9.573261882875649E-005  9.809721451382495E-005 
 1.005202157123188E-004  1.030030650404112E-004  1.055472407469090E-004  1.081542575933585E-004 
 1.108256677559145E-004  1.135630617494858E-004  1.163680693746972E-004  1.192423606882538E-004 
 1.221876469972530E-004  1.252056818780851E-004  1.282982622204728E-004  1.314672292973202E-004 
 1.347144698609639E-004  1.380419172665288E-004  1.414515526230121E-004  1.449454059728012E-004 
 1.485255575003289E-004  1.521941387705872E-004  1.559533339982198E-004  1.598053813479766E-004 
 1.637525742672703E-004  1.677972628516719E-004  1.719418552441098E-004  1.761888190686392E-004 
 1.805406828996347E-004  1.850000377672539E-004  1.895695387001074E-004  1.942519063059987E-004 
 1.990499283917571E-004  2.039664616230346E-004  2.090044332251224E-004  2.141668427257834E-004 
 2.194567637411095E-004  2.248773458055148E-004  2.304318162469119E-004  2.361234821082092E-004 
 2.419557321162827E-004  2.479320386995433E-004  2.540559600554374E-004  2.603311422688130E-004 
 2.667613214828410E-004  2.733503261234802E-004  2.801020791787190E-004  2.870206005344255E-004 
 2.941100093676349E-004  3.013745265990065E-004  3.088184774060120E-004  3.164462937979287E-004 
 3.242625172547363E-004  3.322718014309411E-004  3.404789149262815E-004  3.488887441249711E-004 
 3.575062961048490E-004  3.663367016186313E-004  3.753852181486299E-004  3.846572330368927E-004 
 3.941582666929098E-004  4.038939758802052E-004  4.138701570844485E-004  4.240927499644527E-004 
 4.345678408885723E-004  4.453016665585001E-004  4.563006177225168E-004  4.675712429802616E-004 
 4.791202526818593E-004  4.909545229231085E-004  5.030810996393194E-004  5.155072028004106E-004 
 5.282402307095588E-004  5.412877644080864E-004  5.546575721889773E-004  5.683576142220452E-004 
 5.823960472933196E-004  5.967812296614773E-004  6.115217260341014E-004  6.266263126671599E-004 
 6.421039825900224E-004  6.579639509600150E-004  6.742156605487101E-004  6.908687873642711E-004 
 7.079332464121674E-004  7.254191975985564E-004  7.433370517792353E-004  7.616974769581879E-004 
 7.805114046390462E-004  7.997900363336387E-004  8.195448502310637E-004  8.397876080317820E-004 
 8.605303619501637E-004  8.817854618903244E-004  9.035655627990318E-004  9.258836322001698E-004 
 9.487529579154982E-004  9.721871559760230E-004  9.962001787286140E-004  1.020806323143216E-003 
 1.046020239324870E-003  1.071856939236187E-003  1.098331805635314E-003  1.125460601234513E-003 
 1.153259478085009E-003  1.181744987193695E-003  1.210934088377396E-003  1.240844160360317E-003 
 1.271493011121209E-003  1.302898888495901E-003  1.335080491041739E-003  1.368056979170472E-003 
 1.401847986555983E-003  1.436473631823931E-003  1.471954530529972E-003  1.508311807434077E-003 
 1.545567109077693E-003  1.583742616671913E-003  1.622861059303694E-003  1.662945727468496E-003 
 1.704020486936986E-003  1.746109792964309E-003  1.789238704850548E-003  1.833432900860356E-003 
 1.878718693511605E-003  1.925123045241338E-003  1.972673584458787E-003  2.021398621994932E-003 
 2.071327167958206E-003  2.122488949006763E-003  2.174914426047226E-003  2.228634812370612E-003 
 2.283682092236163E-003  2.340089039914387E-003  2.397889239200279E-003  2.457117103408443E-003 
 2.517807895862605E-003  2.579997750890594E-003  2.643723695337499E-003  2.709023670612290E-003 
 2.775936555276495E-003  2.844502188191892E-003  2.914761392240118E-003  2.986755998628380E-003 
 3.060528871794658E-003  3.136123934928041E-003  3.213586196120518E-003  3.292961775164891E-003 
 3.374297931011478E-003  3.457643089907284E-003  3.543046874228122E-003  3.630560132021516E-003 
 3.720234967282562E-003  3.812124770974241E-003  3.906284252817293E-003  4.002769473861877E-003 
 4.101637879866370E-003  4.202948335499173E-003  4.306761159385979E-003  4.413138160022750E-003 
 4.522142672575374E-003  4.633839596587989E-003  4.748295434623618E-003  4.865578331858840E-003 
 4.985758116655679E-003  5.108906342137060E-003  5.235096328788031E-003  5.364403208108876E-003 
 5.496903967349372E-003  5.632677495342762E-003  5.771804629477729E-003  5.914368203825955E-003 
 6.060453098460393E-003  6.210146289992311E-003  6.363536903355170E-003  6.520716264868039E-003 
 6.681777956610252E-003  6.846817872138546E-003  7.015934273580362E-003  7.189227850137697E-003 
 7.366801778036156E-003  7.548761781953628E-003  7.735216197967836E-003  7.926276038057692E-003 
 8.122055056197704E-003  8.322669816085961E-003  8.528239760543269E-003  8.738887282628583E-003 
 8.954737798509490E-003  9.175919822132715E-003  9.402565041739482E-003  9.634808398270380E-003 
 9.872788165707632E-003  1.011664603340054E-002  1.036652719042564E-002  1.062258041202921E-002 
 1.088495814820611E-002  1.115381661446692E-002  1.142931588484419E-002  1.171161998719987E-002 
 1.200089700088366E-002  1.229731915680548E-002  1.260106293997868E-002  1.291230919459620E-002 
 1.323124323170264E-002  1.355805493952568E-002  1.389293889653193E-002  1.423609448727620E-002 
 1.458772602111203E-002  1.494804285383339E-002  1.531725951232330E-002  1.569559582227765E-002 
 1.608327703908791E-002  1.648053398195342E-002  1.688760317130764E-002  1.730472696963894E-002 
 1.773215372578884E-002  1.817013792281600E-002  1.861894032950939E-002  1.907882815564832E-002 
 1.955007521109291E-002  2.003296206880684E-002  2.052777623190649E-002  2.103481230483448E-002 
 2.155437216876385E-002  2.208676516133226E-002  2.263230826081723E-002  2.319132627485947E-002 
 2.376415203384841E-002  2.435112658908457E-002  2.495259941583472E-002  2.556892862140706E-002 
 2.620048115835448E-002  2.684763304296530E-002  2.751076957912762E-002  2.819028558773214E-002 
 2.888658564174799E-002  2.960008430710092E-002  3.033120638948535E-002  3.108038718730595E-002 
 3.184807275083113E-002  3.263472014777860E-002  3.344079773542773E-002  3.426678543949320E-002 
 3.511317503984764E-002  3.598047046333253E-002  3.686918808377671E-002  3.777985702944720E-002 
 3.871301949807366E-002  3.966923107967602E-002  4.064906108734390E-002  4.165309289620241E-002 
 4.268192429073710E-002  4.373616782071758E-002  4.481645116589047E-002  4.592341750968803E-002 
 4.705772592217706E-002  4.822005175245547E-002  4.941108703074041E-002  5.063154088039946E-002 
 5.188213994014670E-002  5.316362879666733E-002  5.447677042794419E-002  5.582234665751521E-002 
 5.720115861995499E-002  5.861402723786823E-002  6.006179371064377E-002  6.154532001529650E-002 
 6.306548941967505E-002  6.462320700834027E-002  6.621940022144664E-002  6.785501940691645E-002 
 6.953103838626837E-002  7.124845503440753E-002  7.300829187375790E-002  7.481159668303945E-002 
 7.665944312110988E-002  7.855293136620249E-002  8.049318877094858E-002  8.248137053358898E-002 
 8.451866038577031E-002  8.660627129729910E-002  8.874544619834183E-002  9.093745871943931E-002 
 9.318361394981131E-002  9.548524921437088E-002  9.784373486996592E-002  1.002604751212528E-001 
 1.027369088567488E-001  1.052745105055095E-001  1.078747909149979E-001  1.105392982505982E-001 
 1.132696189173878E-001  1.160673785046467E-001  1.189342427537110E-001  1.218719185497283E-001 
 1.248821549379053E-001  1.279667441648735E-001  1.311275227457449E-001  1.343663725575657E-001 
 1.376852219597377E-001  1.410860469421424E-001  1.445708723016136E-001  1.481417728474622E-001 
 1.518008746367939E-001  1.555503562403241E-001  1.593924500394588E-001  1.633294435554344E-001 
 1.673636808112537E-001  1.714975637272908E-001  1.757335535513566E-001  1.800741723240754E-001 
 1.845220043804780E-001  1.890796978886762E-001  1.937499664265270E-001  1.985355905972614E-001 
 2.034394196850142E-001  2.084643733512338E-001  2.136134433730103E-001  2.188896954243234E-001 
 2.242962709013030E-001  2.298363887925656E-001  2.355133475957429E-001  2.413305272813573E-001 
 2.472913913051958E-001  2.533994886704419E-001  2.596584560406056E-001  2.660720199047987E-001 
 2.726439987964606E-001  2.793783055667198E-001  2.862789497142176E-001  2.933500397721728E-001 
 3.005957857545442E-001  3.080205016626792E-001  3.156286080537440E-001  3.234246346726658E-001 
 3.314132231491013E-001  3.395991297608700E-001  3.479872282659765E-001  3.565825128041466E-001 
 3.653901008703933E-001  3.744152363619038E-001  3.836632927000292E-001  3.931397760297197E-001 
 4.028503284976496E-001  4.128007316115450E-001  4.229969096823481E-001  4.334449333515152E-001 
 4.441510232052973E-001  4.551215534784730E-001  4.663630558493846E-001  4.778822233288654E-001 
 4.896859142450822E-001  5.017811563269305E-001  5.141751508882242E-001  5.268752771151459E-001 
 5.398890964598865E-001  5.532243571424473E-001  5.668889987638798E-001  5.808911570333469E-001 
 5.952391686120633E-001  6.099415760767924E-001  6.250071330058821E-001  6.404448091911276E-001 
 6.562637959781519E-001  6.724735117388116E-001  6.890836074787549E-001  7.061039725834721E-001 
 7.235447407062823E-001  7.414162958017414E-001  7.597292783080365E-001  7.784945914822465E-001 
 7.977234078918582E-001  8.174271760667855E-001  8.376176273156484E-001  8.583067827103391E-001 
 8.795069602432886E-001  9.012307821612919E-001  9.234911824806742E-001  9.463014146879430E-001 
 9.696750596307356E-001  9.936260336036260E-001  1.018168596633617E+000  1.043317360970472E+000 
 1.069087299786447E+000  1.095493756091176E+000  1.122552451866630E+000  1.150279497427732E+000 
 1.178691401014209E+000  1.207805078619246E+000  1.237637864061132E+000  1.268207519303457E+000 
 1.299532245030245E+000  1.331630691482502E+000  1.364521969562120E+000  1.398225662210295E+000 
 1.432761836066899E+000  1.468151053417732E+000  1.504414384437166E+000  1.541573419732763E+000 
 1.579650283200160E+000  1.618667645195200E+000  1.658648736031513E+000  1.699617359811513E+000 
 1.741597908598835E+000  1.784615376941242E+000  1.828695376751676E+000  1.873864152557458E+000 
 1.920148597125628E+000
    </PP_RAB>
  </PP_MESH>
  <PP_NLCC type="real" size="537" columns="4">
 6.398104531196423E-002  6.398104531196025E-002  6.398104531195628E-002  6.398104531195228E-002 
 6.398104531194752E-002  6.398104531194275E-002  6.398104531193796E-002  6.398104531193240E-002 
 6.398104531192603E-002  6.398104531191967E-002  6.398104531191251E-002  6.398104531190454E-002 
 6.398104531189659E-002  6.398104531188784E-002  6.398104531187829E-002  6.398104531186795E-002 
 6.398104531185760E-002  6.398104531184566E-002  6.398104531183293E-002  6.398104531181939E-002 
 6.398104531180507E-002  6.398104531178916E-002  6.398104531177165E-002  6.398104531175415E-002 
 6.398104531173425E-002  6.398104531171277E-002  6.398104531169048E-002  6.398104531166582E-002 
 6.398104531163955E-002  6.398104531161171E-002  6.398104531158066E-002  6.398104531154804E-002 
 6.398104531151302E-002  6.398104531147483E-002  6.398104531143425E-002  6.398104531139048E-002 
 6.398104531134352E-002  6.398104531129260E-002  6.398104531123769E-002  6.398104531117881E-002 
 6.398104531111594E-002  6.398104531104751E-002  6.398104531097429E-002  6.398104531089550E-002 
 6.398104531081035E-002  6.398104531071964E-002  6.398104531062096E-002  6.398104531051592E-002 
 6.398104531040212E-002  6.398104531027958E-002  6.398104531014827E-002  6.398104531000662E-002 
 6.398104530985463E-002  6.398104530969070E-002  6.398104530951404E-002  6.398104530932465E-002 
 6.398104530912092E-002  6.398104530890129E-002  6.398104530866494E-002  6.398104530841030E-002 
 6.398104530813735E-002  6.398104530784292E-002  6.398104530752620E-002  6.398104530718560E-002 