<UPF version="2.0.1">
  <PP_INFO>
    Generated using FHI98PP, converted with fhi2upf.x v.5.0.1
    Author: Abinit web site
    Generation date: 10-Jul-2012, PG
    Pseudopotential type: SL
    Element: Ta
    Functional: SLA-PW

    Suggested minimum cutoff for wavefunctions:   0. Ry
    Suggested minimum cutoff for charge density:   0. Ry
    The Pseudo was generated with a Non-Relativistic Calculation
    L component and cutoff radius for Local Potential:  1   0.0000

    Valence configuration: 
    nl pn  l   occ       Rcut    Rcut US       E pseu
    6s  6  0  2.00      0.000      0.000     0.000000
    6p  6  1  0.00      0.000      0.000     0.000000
    5d  5  2  3.00      0.000      0.000     0.000000
    5f  5  3  0.00      0.000      0.000     0.000000

    Generation configuration: not available.
    Comment:
    tantalum, fhi98PP : Trouiller-Martins-type, LDA Ceperley/Alder Perdew/Wang (1992
  </PP_INFO>
  <!--                               -->
  <!-- END OF HUMAN READABLE SECTION -->
  <!--                               -->
  <PP_HEADER generated="Generated using FHI98PP, converted with fhi2upf.x v.5.0.1"
             author="Abinit web site"
             date="10-Jul-2012, PG"
             comment="tantalum, fhi98PP : Trouiller-Martins-type, LDA Ceperley/Alder Perdew/Wang (1992"
             element="Ta"
             pseudo_type="SL"
             relativistic="no"
             is_ultrasoft="F"
             is_paw="F"
             is_coulomb="F"
             has_so="F"
             has_wfc="F"
             has_gipaw="F"
             paw_as_gipaw="F"
             core_correction="F"
             functional="SLA-PW"
             z_valence="5.000000000000000E+000"
             total_psenergy="0.000000000000000E+000"
             wfc_cutoff="0.000000000000000E+000"
             rho_cutoff="0.000000000000000E+000"
             l_max="3"
             l_max_rho="0"
             l_local="1"
             mesh_size="563"
             number_of_wfc="4"
             number_of_proj="3"/>
  <PP_MESH dx="2.439988682353512E-002" mesh="563" xmin="-5.075173815233831E+000" rmax="7.725434332309500E+001"
zmesh="7.300000000000000E+001">
    <PP_R type="real" size="563" columns="4">
 8.561643835616400E-005  8.773116438356200E-005  8.989812414383600E-005  9.211860781018801E-005 
 9.439393742310000E-005  9.672546767745100E-005  9.911458672908401E-005  1.015627170212900E-004 
 1.040713161317200E-004  1.066418776401700E-004  1.092759320178800E-004  1.119750475387300E-004 
 1.147408312129300E-004  1.175749297438900E-004  1.204790305085700E-004  1.234548625621300E-004 
 1.265041976674100E-004  1.296288513498000E-004  1.328306839781400E-004  1.361116018724000E-004 
 1.394735584386400E-004  1.429185553320800E-004  1.464486436487800E-004  1.500659251469100E-004 
 1.537725534980300E-004  1.575707355694400E-004  1.614627327380000E-004  1.654508622366300E-004 
 1.695374985338700E-004  1.737250747476600E-004  1.780160840939300E-004  1.824130813710500E-004 
 1.869186844809100E-004  1.915355759875900E-004  1.962665047144900E-004  2.011142873809300E-004 
 2.060818102792400E-004  2.111720309931400E-004  2.163879801586700E-004  2.217327632685900E-004 
 2.272095625213200E-004  2.328216387156000E-004  2.385723331918800E-004  2.444650698217100E-004 
 2.505033570463100E-004  2.566907899653600E-004  2.630310524775000E-004  2.695279194736900E-004 
 2.761852590846900E-004  2.830070349840900E-004  2.899973087481900E-004  2.971602422742700E-004 
 3.045001002584500E-004  3.120212527348300E-004  3.197281776773800E-004  3.276254636660100E-004 
 3.357178126185600E-004  3.440100425902400E-004  3.525070906422200E-004  3.612140157810800E-004 
 3.701360019708800E-004  3.792783612195600E-004  3.886465367416800E-004  3.982461061992000E-004 
 4.080827850223200E-004  4.181624298123700E-004  4.284910418287400E-004  4.390747705619100E-004 
 4.499199173947900E-004  4.610329393544400E-004  4.724204529564900E-004  4.840892381445200E-004 
 4.960462423266900E-004  5.082985845121600E-004  5.208535595496100E-004  5.337186424704800E-004 
 5.469014929395000E-004  5.604099598151100E-004  5.742520858225400E-004  5.884361123423600E-004 
 6.029704843172100E-004  6.178638552798501E-004  6.331250925052600E-004  6.487632822901399E-004 
 6.647877353627100E-004  6.812079924261700E-004  6.980338298390901E-004  7.152752654361200E-004 
 7.329425644923900E-004  7.510462458353500E-004  7.695970881074800E-004  7.886061361837400E-004 
 8.080847077474800E-004  8.280444000288400E-004  8.484970967095500E-004  8.694549749982800E-004 
 8.909305128807400E-004  9.129364965488900E-004  9.354860280136500E-004  9.585925329055800E-004 
 9.822697684683500E-004  1.006531831749500E-003  1.031393167993700E-003  1.056868579243200E-003 
 1.082973233150500E-003  1.109722672009300E-003  1.137132822007900E-003  1.165220002711500E-003 
 1.194000936778500E-003  1.223492759916900E-003  1.253713031086900E-003  1.284679742954700E-003 
 1.316411332605700E-003  1.348926692521100E-003  1.382245181826300E-003  1.416386637817400E-003 
 1.451371387771500E-003  1.487220261049500E-003  1.523954601497400E-003  1.561596280154400E-003 
 1.600167708274200E-003  1.639691850668600E-003  1.680192239380100E-003  1.721692987692800E-003 
 1.764218804488800E-003  1.807795008959700E-003  1.852447545681000E-003  1.898203000059300E-003 
 1.945088614160800E-003  1.993132302930500E-003  2.042362670812900E-003  2.092809028782000E-003 
 2.144501411792900E-003  2.197470596664200E-003  2.251748120401800E-003  2.307366298975700E-003 
 2.364358246560400E-003  2.422757895250500E-003  2.482600015263200E-003  2.543920235640200E-003 
 2.606755065460500E-003  2.671141915577300E-003  2.737119120892100E-003  2.804725963178100E-003 
 2.874002694468600E-003  2.944990561022000E-003  3.017731827879300E-003  3.092269804027900E-003 
 3.168648868187400E-003  3.246914495231600E-003  3.327113283263800E-003  3.409292981360400E-003 
 3.493502518000000E-003  3.579792030194600E-003  3.668212893340400E-003  3.758817751806000E-003 
 3.851660550275600E-003  3.946796565867400E-003  4.044282441044300E-003  4.144176217338100E-003 
 4.246537369906300E-003  4.351426842943000E-003  4.458907085963700E-003  4.569042090987000E-003 
 4.681897430634400E-003  4.797540297171100E-003  4.916039542511200E-003  5.037465719211200E-003 
 5.161891122475700E-003  5.289389833200900E-003  5.420037762080900E-003  5.553912694804300E-003 
 5.691094338366000E-003  5.831664368523700E-003  5.975706478426200E-003  6.123306428443300E-003 
 6.274552097225900E-003  6.429533534027300E-003  6.588343012317800E-003  6.751075084722100E-003 
 6.917826639314700E-003  7.088696957305800E-003  7.263787772151200E-003  7.443203330123400E-003 
 7.627050452377400E-003  7.815438598551100E-003  8.008479931935300E-003  8.206289386254100E-003 
 8.408984734094601E-003  8.616686657026799E-003  8.829518817455299E-003  9.047607932246500E-003 
 9.271083848172899E-003  9.500079619222800E-003  9.734731585817599E-003  9.975179455987301E-003 
 1.022156638855000E-002  1.047403907834700E-002  1.073274784358300E-002  1.099784671531900E-002 
 1.126949352918700E-002  1.154785001935800E-002  1.183308191483700E-002  1.212535903813300E-002 
 1.242485540637500E-002  1.273174933491200E-002  1.304622354348500E-002  1.336846526500900E-002 
 1.369866635705400E-002  1.403702341607400E-002  1.438373789445100E-002  1.473901622044400E-002 
 1.510306992108900E-002  1.547611574813900E-002  1.585837580711900E-002  1.625007768955400E-002 
 1.665145460848600E-002  1.706274553731600E-002  1.748419535208800E-002  1.791605497728400E-002 
 1.835858153522300E-002  1.881203849914300E-002  1.927669585007200E-002  1.975283023756900E-002 
 2.024072514443700E-002  2.074067105550400E-002  2.125296563057500E-002  2.177791388165000E-002 
 2.231582835452700E-002  2.286702931488400E-002  2.343184493896200E-002  2.401061150895400E-002 
 2.460367361322500E-002  2.521138435147200E-002  2.583410554495300E-002  2.647220795191400E-002 
 2.712607148832600E-002  2.779608545408700E-002  2.848264876480300E-002  2.918617018929400E-002 
 2.990706859297000E-002  3.064577318721600E-002  3.140272378494000E-002  3.217837106242800E-002 
 3.297317682767000E-002  3.378761429531400E-002  3.462216836840800E-002  3.547733592710800E-002 
 3.635362612450700E-002  3.725156068978200E-002  3.817167423882000E-002  3.911451459251900E-002 
 4.008064310295400E-002  4.107063498759700E-002  4.208507967179100E-002  4.312458113968400E-002 
 4.418975829383400E-002  4.528124532369200E-002  4.639969208318700E-002  4.754576447764200E-002 
 4.872014486024000E-002  4.992353243828700E-002  5.115664368951300E-002  5.242021278864400E-002 
 5.371499204452400E-002  5.504175234802300E-002  5.640128363102000E-002  5.779439533670600E-002 
 5.922191690152200E-002  6.068469824899000E-002  6.218361029574000E-002  6.371954547004501E-002 
 6.529341824315500E-002  6.690616567376099E-002  6.855874796590300E-002  7.025214904066000E-002 
 7.198737712196500E-002  7.376546533687700E-002  7.558747233069800E-002  7.745448289726600E-002 
 7.936760862482900E-002  8.132798855786200E-002  8.333678987524100E-002  8.539520858516000E-002 
 8.750447023721300E-002  8.966583065207200E-002  9.188057666917900E-002  9.415002691290700E-002 
 9.647553257765600E-002  9.885847823232401E-002  1.013002826446600E-001  1.038023996259900E-001 
 1.063663188967500E-001  1.089935669735000E-001  1.116857080777400E-001  1.144443450672600E-001 
 1.172711203904200E-001  1.201677170640700E-001  1.231358596755500E-001  1.261773154095400E-001 
 1.292938951001500E-001  1.324874543091300E-001  1.357598944305600E-001  1.391131638230000E-001 
 1.425492589694200E-001  1.460702256659700E-001  1.496781602399200E-001  1.533752107978400E-001 
 1.571635785045500E-001  1.610455188936100E-001  1.650233432102900E-001  1.690994197875800E-001 
 1.732761754563300E-001  1.775560969901000E-001  1.819417325857600E-001  1.864356933806300E-001 
 1.910406550071300E-001  1.957593591858100E-001  2.005946153576900E-001  2.055493023570300E-001 
 2.106263701252500E-001  2.158288414673400E-001  2.211598138515900E-001  2.266224612537200E-001 
 2.322200360466900E-001  2.379558709370400E-001  2.438333809491800E-001  2.498560654586300E-001 
 2.560275102754600E-001  2.623513897792600E-001  2.688314691068100E-001  2.754716063937500E-001 
 2.822757550716700E-001  2.892479662219400E-001  2.963923909876200E-001  3.037132830450200E-001 
 3.112150011362300E-001  3.189020116643000E-001  3.267788913524000E-001  3.348503299688100E-001 
 3.431211331190400E-001  3.515962251070800E-001  3.602806518672200E-001  3.691795839683400E-001 
 3.782983196923600E-001  3.876422881887600E-001  3.972170527070300E-001  4.070283139088900E-001 
 4.170819132624400E-001  4.273838365200200E-001  4.379402172820700E-001  4.487573406489300E-001 
 4.598416469629600E-001  4.711997356429500E-001  4.828383691133300E-001  4.947644768304300E-001 
 5.069851594081400E-001  5.195076928455200E-001  5.323395328588000E-001  5.454883193204100E-001 
 5.589618808076300E-001  5.727682392635800E-001  5.869156147733900E-001  6.014124304582900E-001 
 6.162673174906100E-001  6.314891202326300E-001  6.470869015023700E-001  6.630699479694800E-001 
 6.794477756843300E-001  6.962301357437300E-001  7.134270200966000E-001  7.310486674929900E-001 
 7.491055695800700E-001  7.676084771486900E-001  7.865684065342700E-001  8.059966461756600E-001 
 8.259047633362000E-001  8.463046109905999E-001  8.672083348820701E-001  8.886283807536600E-001 
 9.105775017582700E-001  9.330687660517000E-001  9.561155645731800E-001  9.797316190181400E-001 
 1.003930990007900E+000  1.028728085461100E+000  1.054137669172000E+000  1.080174869600500E+000 
 1.106855188879700E+000  1.134194512045000E+000  1.162209116492500E+000  1.190915681669900E+000 
 1.220331299007100E+000  1.250473482092600E+000  1.281360177100300E+000  1.313009773474600E+000 
 1.345441114879500E+000  1.378673510417000E+000  1.412726746124300E+000  1.447621096753600E+000 
 1.483377337843400E+000  1.520016758088100E+000  1.557561172012900E+000  1.596032932961600E+000 
 1.635454946405700E+000  1.675850683582000E+000  1.717244195466400E+000  1.759660127094500E+000 
 1.803123732233700E+000  1.847660888419900E+000  1.893298112363800E+000  1.940062575739200E+000 
 1.987982121360000E+000  2.037085279757600E+000  2.087401286167600E+000  2.138960097935900E+000 
 2.191792412354900E+000  2.245929684940100E+000  2.301404148158100E+000  2.358248830617600E+000 
 2.416497576733900E+000  2.476185066879200E+000  2.537346838031100E+000  2.600019304930500E+000 
 2.664239781762300E+000  2.730046504371800E+000  2.797478653029800E+000  2.866576375759600E+000 
 2.937380812240900E+000  3.009934118303200E+000  3.084279491025300E+000  3.160461194453700E+000 
 3.238524585956700E+000  3.318516143229800E+000  3.400483491967600E+000  3.484475434219200E+000 
 3.570541977444400E+000  3.658734364287300E+000  3.749105103085100E+000  3.841707999131300E+000 
 3.936598186709900E+000  4.033832161921600E+000  4.133467816321100E+000  4.235564471384200E+000 
 4.340182913827400E+000  4.447385431798900E+000  4.557235851964400E+000  4.669799577507900E+000 
 4.785143627072300E+000  4.903336674661000E+000  5.024449090525200E+000  5.148552983061100E+000 
 5.275722241742700E+000  5.406032581113800E+000  5.539561585867300E+000  5.676388757038200E+000 
 5.816595559337100E+000  5.960265469652700E+000  6.107484026753100E+000  6.258338882213900E+000 
 6.412919852604600E+000  6.571318972963900E+000  6.733630551596100E+000  6.899951226220600E+000 
 7.070380021508200E+000  7.245018408039500E+000  7.423970362718000E+000  7.607342430677200E+000 
 7.795243788714900E+000  7.987786310296200E+000  8.185084632160500E+000  8.387256222574800E+000 
 8.594421451272400E+000  8.806703661118901E+000  9.024229241548500E+000  9.247127703814700E+000 
 9.475531758099001E+000  9.709577392524000E+000  9.949403954119299E+000  1.019515423178600E+001 
 1.044697454131100E+001  1.070501481248200E+001  1.096942867835000E+001  1.124037356670500E+001 
 1.151801079380300E+001  1.180250566041000E+001  1.209402755022200E+001  1.239275003071200E+001 
 1.269885095647100E+001  1.301251257509600E+001  1.333392163570100E+001  1.366326950010200E+001 
 1.400075225675500E+001  1.434657083749700E+001  1.470093113718300E+001  1.506404413627100E+001 
 1.543612602643700E+001  1.581739833929000E+001  1.620808807827100E+001  1.660842785380400E+001 
 1.701865602179300E+001  1.743901682553100E+001  1.786976054112200E+001  1.831114362648800E+001 
 1.876342887406200E+001  1.922688556725100E+001  1.970178964076200E+001  2.018842384488900E+001 
 2.068707791385800E+001  2.119804873833000E+001  2.172164054216700E+001  2.225816506355800E+001 
 2.280794174062800E+001  2.337129790162200E+001  2.394856895979200E+001  2.454009861309900E+001 
 2.514623904884200E+001  2.576735115334900E+001  2.640380472683600E+001  2.705597870358900E+001 
 2.772426137756800E+001  2.840905063359400E+001  2.911075418424400E+001  2.982978981259400E+001 
 3.056658562096500E+001  3.132158028580300E+001  3.209522331886300E+001  3.288797533483800E+001 
 3.370030832560900E+001  3.453270594125200E+001  3.538566377800000E+001  3.625968967331700E+001 
 3.715530400824800E+001  3.807304001725200E+001  3.901344410567800E+001  3.997707617508800E+001 
 4.096450995661300E+001  4.197633335254100E+001  4.301314878634900E+001  4.407557356137200E+001 
 4.516424022833800E+001  4.627979696197700E+001  4.742290794693800E+001  4.859425377322800E+001 
 4.979453184142600E+001  5.102445677791000E+001  5.228476086032400E+001  5.357619445357400E+001 
 5.489952645657700E+001  5.625554476005500E+001  5.764505671562800E+001  5.906888961650400E+001 
 6.052789119003200E+001  6.202293010242500E+001  6.355489647595500E+001  6.512470241891100E+001 
 6.673328256865901E+001  6.838159464810400E+001  7.007062003591300E+001  7.180136435080000E+001 
 7.357485805026400E+001  7.539215704410600E+001  7.725434332309500E+001
    </PP_R>
    <PP_RAB type="real" size="563" columns="4">
 2.089031406124573E-006  2.140630481855868E-006  2.193504054757709E-006  2.247683604910206E-006 
 2.303201389951496E-006  2.360090464283309E-006  2.418384698751106E-006  2.478118800810200E-006 
 2.539328335190313E-006  2.602049745069428E-006  2.666320373772590E-006  2.732178487004977E-006 
 2.799663295633838E-006  2.868814979036009E-006  2.939674709018343E-006  3.012284674331055E-006 
 3.086688105786919E-006  3.162929301999978E-006  3.241053655759376E-006  3.321107681056631E-006 
 3.403139040778528E-006  3.487196575085894E-006  3.573330330490458E-006  3.661591589653697E-006 
 3.752032901917932E-006  3.844708114595516E-006  3.939672405025898E-006  4.036982313430073E-006 
 4.136695776571679E-006  4.238872162253083E-006  4.343572304660803E-006  4.450858540585923E-006 
 4.560794746538275E-006  4.673446376777807E-006  4.788880502284378E-006  4.907165850690609E-006 
 5.028372847202693E-006  5.152573656528667E-006  5.279842225844911E-006  5.410254328823302E-006 
 5.543887610745135E-006  5.680821634730623E-006  5.821137929108584E-006  5.964920035957335E-006 
 6.112253560845574E-006  6.263226223798609E-006  6.417927911526327E-006  6.576450730940923E-006 
 6.738889063995161E-006  6.905339623876040E-006  7.075901512585607E-006  7.250676279946465E-006 
 7.429767984061278E-006  7.613283253267501E-006  7.801331349623201E-006  7.994024233958863E-006 
 8.191476632537634E-006  8.393806105361353E-006  8.601133116163804E-006  8.813581104132981E-006 
 9.031276557405246E-006  9.254349088373136E-006  9.482931510855876E-006  9.717159919174029E-006 
 9.957173769177620E-006  1.020311596127628E-005  1.045513292551991E-005  1.071337470878025E-005 
 1.097799506408715E-005  1.124915154217007E-005  1.152700558526155E-005  1.181172262321763E-005 
 1.210347217201111E-005  1.240242793465981E-005  1.270876790464590E-005  1.302267447189052E-005 
 1.334433453134619E-005  1.367393959427055E-005  1.401168590224895E-005  1.435777454403458E-005 
 1.471241157527208E-005  1.507580814118142E-005  1.544818060226855E-005  1.582975066314458E-005 
 1.622074550452434E-005  1.662139791848612E-005  1.703194644707257E-005  1.745263552431537E-005 
 1.788371562176591E-005  1.832544339762348E-005  1.877808184954470E-005  1.924190047122858E-005 
 1.971717541286797E-005  2.020418964556574E-005  2.070323312981116E-005  2.121460298811759E-005 
 2.173860368192416E-005  2.227554719286758E-005  2.282575320853147E-005  2.338954931278202E-005 
 2.396727118080779E-005  2.455926277897329E-005  2.516587656961362E-005  2.578747372088444E-005 
 2.642442432179012E-005  2.707710760253791E-005  2.774591216031987E-005  2.843123619067989E-005 
 2.913348772459031E-005  2.985308487138699E-005  3.059045606771153E-005  3.134604033258288E-005 
 3.212028752879812E-005  3.291365863076040E-005  3.372662599893845E-005  3.455967366111199E-005 
 3.541329760054170E-005  3.628800605127615E-005  3.718431980074212E-005  3.810277249982081E-005 
 3.904391098056604E-005  4.000829558178669E-005  4.099650048265647E-005  4.200911404457837E-005 
 4.304673916147916E-005  4.410999361876834E-005  4.519951046115181E-005  4.631593836954175E-005 
 4.745994204727030E-005  4.863220261583612E-005  4.983341802044767E-005  5.106430344555326E-005 
 5.232559174065805E-005  5.361803385665267E-005  5.494239929291186E-005  5.629947655544618E-005 
 5.769007362636571E-005  5.911501844493835E-005  6.057515940052865E-005  6.207136583772167E-005 
 6.360452857391308E-005  6.517556042968692E-005  6.678539677230118E-005  6.843499607257618E-005 
 7.012534047556882E-005  7.185743638531600E-005  7.363231506403469E-005  7.545103324611590E-005 
 7.731467376729522E-005  7.922434620934671E-005  8.118118756071707E-005  8.318636289346639E-005 
 8.524106605693497E-005  8.734652038854126E-005  8.950397944213807E-005  9.171472773436113E-005 
 9.398008150939964E-005  9.630138952268163E-005  9.868003384389127E-005  1.011174306798355E-004 
 1.036150312176262E-004  1.061743224887020E-004  1.087968282541731E-004  1.114841099120511E-004 
 1.142377674268792E-004  1.170594402823239E-004  1.199508084572966E-004  1.229135934261912E-004 
 1.259495591838177E-004  1.290605132956593E-004  1.322483079740605E-004  1.355148411810199E-004 
 1.388620577581919E-004  1.422919505848207E-004  1.458065617642649E-004  1.494079838398416E-004 
 1.530983610406869E-004  1.568798905583899E-004  1.607548238551828E-004  1.647254680044070E-004 
 1.687941870641150E-004  1.729634034845993E-004  1.772355995506676E-004  1.816133188595707E-004 
 1.860991678354009E-004  1.906958172809348E-004  1.954060039677736E-004  2.002325322657775E-004 
 2.051782758127428E-004  2.102461792253191E-004  2.154392598521830E-004  2.207606095705332E-004 
 2.262133966269232E-004  2.318008675236089E-004  2.375263489514420E-004  2.433932497705428E-004 
 2.494050630398706E-004  2.555653680969509E-004  2.618778326889658E-004  2.683462151563711E-004 
 2.749743666707242E-004  2.817662335274931E-004  2.887258594956430E-004  2.958573882251739E-004 
 3.031650657143385E-004  3.106532428374714E-004  3.183263779355733E-004  3.261890394705801E-004 
 3.342459087454858E-004  3.425017826915180E-004  3.509615767239978E-004  3.596303276690820E-004 
 3.685131967625091E-004  3.776154727225212E-004  3.869425748987910E-004  3.965000564987707E-004 
 4.062936078942907E-004  4.163290600092894E-004  4.266123877915260E-004  4.371497137699627E-004 
 4.479473117000829E-004  4.590116102990747E-004  4.703491970734659E-004  4.819668222411860E-004 
 4.938714027505444E-004  5.060700263984683E-004  5.185699560505117E-004  5.313786339649544E-004 
 5.445036862238948E-004  5.579529272736295E-004  5.717343645772970E-004  5.858562033823475E-004 
 6.003268516058875E-004  6.151549248405613E-004  6.303492514841143E-004  6.459188779957880E-004 
 6.618730742822773E-004  6.782213392170336E-004  6.949734062956956E-004  7.121392494312083E-004 
 7.297290888921698E-004  7.477533973877976E-004  7.662229063032705E-004  7.851486120889607E-004 
 8.045417828075589E-004  8.244139648429191E-004  8.447769897745328E-004  8.656429814219717E-004 
 8.870243630630805E-004  9.089338648307307E-004  9.313845312920591E-004  9.543897292149766E-004 
 9.779631555265811E-004  1.002118845468089E-003  1.026871180951159E-003  1.052234899120647E-003 
 1.078225101128922E-003  1.104857261126814E-003  1.132147235476641E-003  1.160111272192921E-003 
 1.188766020616092E-003  1.218128541325287E-003  1.248216316296029E-003  1.279047259308542E-003 
 1.310639726613475E-003  1.343012527860810E-003  1.376184937298992E-003  1.410176705250272E-003 
 1.445008069869939E-003  1.480699769195736E-003  1.517273053494869E-003  1.554749697916198E-003 
 1.593152015454725E-003  1.632502870236459E-003  1.672825691131302E-003  1.714144485702226E-003 
 1.756483854499087E-003  1.799869005705202E-003  1.844325770146124E-003  1.889880616668727E-003 
 1.936560667900458E-003  1.984393716397592E-003  2.033408241192608E-003  2.083633424750079E-003 
 2.135099170341395E-003  2.187836119848823E-003  2.241875672009109E-003  2.297250001107717E-003 
 2.353992076135082E-003  2.412135680415616E-003  2.471715431721823E-003  2.532766802885520E-003 
 2.595326142916745E-003  2.659430698646795E-003  2.725118636903238E-003  2.792429067234744E-003 
 2.861402065195410E-003  2.932078696205898E-003  3.004501040002122E-003  3.078712215690270E-003 
 3.154756407417682E-003  3.232678890681052E-003  3.312526059280740E-003  3.394345452945101E-003 
 3.478185785632647E-003  3.564096974537903E-003  3.652130169809003E-003  3.742337785003138E-003 
 3.834773528292798E-003  3.929492434441571E-003  4.026550897572469E-003  4.126006704742407E-003 
 4.227919070349466E-003  4.332348671387065E-003  4.439357683570436E-003  4.549009818354668E-003 
 4.661370360867990E-003  4.776506208781524E-003  4.894485912138196E-003  5.015379714168133E-003 
 5.139259593108119E-003  5.266199305057799E-003  5.396274427892891E-003  5.529562406261740E-003 
 5.666142597696482E-003  5.806096319859506E-003  5.949506898959917E-003  6.096459719364355E-003 
 6.247042274432699E-003  6.401344218611093E-003  6.559457420810842E-003  6.721476019104914E-003 
 6.887496476776668E-003  7.057617639753045E-003  7.231940795454899E-003  7.410569733102776E-003 
 7.593610805510367E-003  7.781172992406596E-003  7.973367965318841E-003  8.170310154062355E-003 
 8.372116814867705E-003  8.578908100194930E-003  8.790807130269626E-003  9.007940066387277E-003 
 9.230436186027091E-003  9.458427959821929E-003  9.692051130429718E-003  9.931444793351242E-003 
 1.017675147974703E-002  1.042811724129672E-002  1.068569173715689E-002  1.094962832306449E-002 
 1.122008414264422E-002  1.149722022096765E-002  1.178120156042553E-002  1.207219723896806E-002 
 1.237038051077053E-002  1.267592890938653E-002  1.298902435344828E-002  1.330985325497839E-002 
 1.363860663037650E-002  1.397548021414684E-002  1.432067457543625E-002  1.467439523744946E-002 
 1.503685279981447E-002  1.540826306396994E-002  1.578884716164985E-002  1.617883168654263E-002 
 1.657844882920033E-002  1.698793651528151E-002  1.740753854720896E-002  1.783750474932512E-002 
 1.827809111663352E-002  1.872955996721418E-002  1.919218009840455E-002  1.966622694683499E-002 
 2.015198275242184E-002  2.064973672640655E-002  2.115978522354885E-002  2.168243191857058E-002 
 2.221798798695914E-002  2.276677229023705E-002  2.332911156580598E-002  2.390534062148145E-002 
 2.449580253483233E-002  2.510084885744281E-002  2.572083982422190E-002  2.635614456787901E-002 
 2.700714133870727E-002  2.767421772977264E-002  2.835777090769774E-002  2.905820784911874E-002 
 2.977594558299084E-002  3.051141143889131E-002  3.126504330143224E-002  3.203728987097573E-002 
 3.282861093079072E-002  3.363947762078067E-002  3.447037271801395E-002  3.532179092414962E-002 
 3.619423915997579E-002  3.708823686722641E-002  3.800431631784747E-002  3.894302293089786E-002 
 3.990491559728978E-002  4.089056701254477E-002  4.190056401775278E-002  4.293550794899323E-002 
 4.399601499533252E-002  4.508271656571791E-002  4.619625966488940E-002  4.733730727861252E-002 
 4.850653876839526E-002  4.970465027597482E-002  5.093235513779109E-002  5.219038430969355E-002 
 5.347948680214258E-002  5.480043012615633E-002  5.615400075027189E-002  5.754100456880349E-002 
 5.896226738165403E-002  6.041863538598023E-002  6.191097568001354E-002  6.344017677931066E-002 
 6.500714914576003E-002  6.661282572965960E-002  6.825816252518259E-002  6.994413913955373E-002 
 7.167175937630163E-002  7.344205183289505E-002  7.525607051316782E-002  7.711489545484490E-002 
 7.901963337257942E-002  8.097141831688139E-002  8.297141234930894E-002  8.502080623433687E-002 
 8.712082014832465E-002  8.927270440598883E-002  9.147774020481442E-002  9.373724038787327E-002 
 9.605255022545514E-002  9.842504821602303E-002  1.008561469069597E-001  1.033472937355608E-001 
 1.058999718908294E-001  1.085157011965320E-001  1.111960390160880E-001  1.139425811797849E-001 
 1.167569629349245E-001  1.196408599194175E-001  1.225959891594289E-001  1.256241100916650E-001 
 1.287270256109289E-001  1.319065831435202E-001  1.351646757471649E-001  1.385032432381193E-001 
 1.419242733461022E-001  1.454298028977503E-001  1.490219190293242E-001  1.527027604293485E-001 
 1.564745186119538E-001  1.603394392216682E-001  1.642998233704432E-001  1.683580290076950E-001 
 1.725164723241839E-001  1.767776291905924E-001  1.811440366315982E-001  1.856182943364003E-001 
 1.902030662065087E-001  1.949010819418105E-001  1.997151386657728E-001  2.046481025908158E-001 
 2.097029107248090E-001  2.148825726197136E-001  2.201901721634196E-001  2.256288694158549E-001 
 2.312019024904284E-001  2.369125894819409E-001  2.427643304421437E-001  2.487606094040636E-001 
 2.549049964563411E-001  2.612011498688279E-001  2.676528182705805E-001  2.742638428818578E-001 
 2.810381598010491E-001  2.879798023481366E-001  2.950929034661325E-001  3.023816981817342E-001 
 3.098505261268331E-001  3.175038341221700E-001  3.253461788249907E-001  3.333822294419481E-001 
 3.416167705091759E-001  3.500547047407563E-001  3.587010559478487E-001  3.675609720297503E-001 
 3.766397280388877E-001  3.859427293214484E-001  3.954755147357013E-001  4.052437599496659E-001 
 4.152532808204237E-001  4.255100368566811E-001  4.360201347670506E-001  4.467898320958037E-001 
 4.578255409485639E-001  4.691338318099852E-001  4.807214374556895E-001  4.925952569608494E-001 
 5.047623598077883E-001  5.172299900950335E-001  5.300055708503868E-001  5.430967084503786E-001 
 5.565111971491058E-001  5.702570237187007E-001  5.843423722045510E-001  5.987756287980068E-001 
 6.135653868293042E-001  6.287204518840028E-001  6.442498470455200E-001  6.601628182675481E-001 
 6.764688398787650E-001  6.931776202237723E-001  7.102991074433052E-001  7.278434953971346E-001 
 7.458212297334420E-001  7.642430141078621E-001  7.831198165563424E-001  8.024628760252619E-001 
 8.222837090630980E-001  8.425941166769676E-001  8.634061913588662E-001  8.847323242854399E-001 
 9.065852126952921E-001  9.289778674488725E-001  9.519236207748565E-001  9.754361342079896E-001 
 9.995294067229348E-001  1.024217783068983E+000  1.049515962310793E+000  1.075439006579874E+000 
 1.102002350042399E+000  1.129221808088423E+000  1.157113586748211E+000  1.185694292340908E+000 
 1.214980941361710E+000  1.244990970613364E+000  1.275742247587504E+000  1.307253081102916E+000 
 1.339542232206151E+000  1.372628925341656E+000  1.406532859797586E+000  1.441274221434587E+000 
 1.476873694704029E+000  1.513352474963200E+000  1.550732281094793E+000  1.589035368437832E+000 
 1.628284542038269E+000  1.668503170226592E+000  1.709715198531210E+000  1.751945163934929E+000 
 1.795218209484103E+000  1.839560099258372E+000  1.884997233710044E+000
    </PP_RAB>
  </PP_MESH>
  <PP_LOCAL type="real" size="563" columns="4">
-4.361255445357200E+000 -4.361255521657000E+000 -4.361255596115000E+000 -4.361255668775800E+000 
-4.361255739682400E+000 -4.361255808877000E+000 -4.361255876401000E+000 -4.361255942294200E+000 
-4.361256006595800E+000 -4.361256069344000E+000 -4.361256130576200E+000 -4.361256190328600E+000 