<UPF version="2.0.1">
  <PP_INFO>
    Generated using FHI98PP, converted with fhi2upf.x v.5.0.1
    Author: Abinit web site
    Generation date: 10-Jul-2012, PG
    Pseudopotential type: SL
    Element: Tc
    Functional: SLA-PW

    Suggested minimum cutoff for wavefunctions:   0. Ry
    Suggested minimum cutoff for charge density:   0. Ry
    The Pseudo was generated with a Non-Relativistic Calculation
    L component and cutoff radius for Local Potential:  1   0.0000

    Valence configuration: 
    nl pn  l   occ       Rcut    Rcut US       E pseu
    5s  5  0  2.00      0.000      0.000     0.000000
    5p  5  1  0.00      0.000      0.000     0.000000
    4d  4  2  5.00      0.000      0.000     0.000000
    4f  4  3  0.00      0.000      0.000     0.000000

    Generation configuration: not available.
    Comment:
    technetium, fhi98PP : Trouiller-Martins-type, LDA Ceperley/Alder Perdew/Wang (19
  </PP_INFO>
  <!--                               -->
  <!-- END OF HUMAN READABLE SECTION -->
  <!--                               -->
  <PP_HEADER generated="Generated using FHI98PP, converted with fhi2upf.x v.5.0.1"
             author="Abinit web site"
             date="10-Jul-2012, PG"
             comment="technetium, fhi98PP : Trouiller-Martins-type, LDA Ceperley/Alder Perdew/Wang (19"
             element="Tc"
             pseudo_type="SL"
             relativistic="no"
             is_ultrasoft="F"
             is_paw="F"
             is_coulomb="F"
             has_so="F"
             has_wfc="F"
             has_gipaw="F"
             paw_as_gipaw="F"
             core_correction="F"
             functional="SLA-PW"
             z_valence="7.000000000000000E+000"
             total_psenergy="0.000000000000000E+000"
             wfc_cutoff="0.000000000000000E+000"
             rho_cutoff="0.000000000000000E+000"
             l_max="3"
             l_max_rho="0"
             l_local="1"
             mesh_size="541"
             number_of_wfc="4"
             number_of_proj="3"/>
  <PP_MESH dx="2.439988682353512E-002" mesh="541" xmin="-5.075173815233843E+000" rmax="7.667417527136401E+001"
zmesh="4.300000000000000E+001">
    <PP_R type="real" size="541" columns="4">
 1.453488372093000E-004  1.489389534883700E-004  1.526177456395300E-004  1.563874039568300E-004 
 1.602501728345700E-004  1.642083521035800E-004  1.682642984005400E-004  1.724204265710300E-004 
 1.766792111073300E-004  1.810431876216900E-004  1.855149543559400E-004  1.900971737285300E-004 
 1.947925739196300E-004  1.996039504954400E-004  2.045341680726800E-004  2.095861620240800E-004 
 2.147629402260700E-004  2.200675848496500E-004  2.255032541954400E-004  2.310731845740700E-004 
 2.367806922330500E-004  2.426291753312000E-004  2.486221159618800E-004  2.547630822261400E-004 
 2.610557303571300E-004  2.675038068969500E-004  2.741111509273000E-004  2.808816963552100E-004 
 2.878194742551800E-004  2.949286152692900E-004  3.022133520664400E-004  3.096780218624800E-004 
 3.173270690024800E-004  3.251650476068400E-004  3.331966242827300E-004  3.414265809025100E-004 
 3.498598174508100E-004  3.585013549418400E-004  3.673563384089100E-004  3.764300399676100E-004 
 3.857278619548100E-004  3.952553401450900E-004  4.050181470466700E-004  4.150220952787300E-004 
 4.252731410321100E-004  4.357773876156000E-004  4.465410890897100E-004  4.575706539902200E-004 
 4.688726491437800E-004  4.804538035776300E-004  4.923210125260000E-004  5.044813415353900E-004 
 5.169420306713200E-004  5.297104988289000E-004  5.427943481499700E-004  5.562013685492801E-004 
 5.699395423524400E-004  5.840170490485500E-004  5.984422701600500E-004  6.132237942330000E-004 
 6.283704219505601E-004  6.438911713727400E-004  6.597952833056400E-004  6.760922268032900E-004 
 6.927917048053300E-004  7.099036599140200E-004  7.274382803139000E-004  7.454060058376500E-004 
 7.638175341818400E-004  7.826838272761400E-004  8.020161178098600E-004  8.218259159197601E-004 
 8.421250160429800E-004  8.629255039392400E-004  8.842397638865399E-004  9.060804860545400E-004 
 9.284606740600800E-004  9.513936527093700E-004  9.748930759312900E-004  9.989729349067901E-004 
 1.023647566399000E-003  1.048931661289000E-003  1.074840273322900E-003  1.101388828074000E-003 
 1.128593132127400E-003  1.156469382490900E-003  1.185034176238500E-003  1.214304520391500E-003 
 1.244297842045200E-003  1.275031998743700E-003  1.306525289112700E-003  1.338796463753800E-003 
 1.371864736408500E-003  1.405749795397800E-003  1.440471815344100E-003  1.476051469183100E-003 
 1.512509940471900E-003  1.549868936001600E-003  1.588150698720800E-003  1.627378020979200E-003 
 1.667574258097400E-003  1.708763342272400E-003  1.750969796826600E-003  1.794218750808200E-003 
 1.838535953953100E-003  1.883947792015800E-003  1.930481302478600E-003  1.978164190649800E-003 
 2.027024846158900E-003  2.077092359859000E-003  2.128396541147500E-003  2.180967935713800E-003 
 2.234837843726000E-003  2.290038338466000E-003  2.346602285426100E-003  2.404563361876100E-003 
 2.463956076914500E-003  2.524815792014300E-003  2.587178742077000E-003  2.651082057006300E-003 
 2.716563783814400E-003  2.783662909274600E-003  2.852419383133700E-003  2.922874141897100E-003 
 2.995069133201900E-003  3.069047340792000E-003  3.144852810109600E-003  3.222530674519300E-003 
 3.302127182179900E-003  3.383689723579800E-003  3.467266859752200E-003  3.552908351188000E-003 
 3.640665187462400E-003  3.730589617592700E-003  3.822735181147300E-003  3.917156740121600E-003 
 4.013910511602600E-003  4.113054101239200E-003  4.214646537539800E-003  4.318748307017000E-003 
 4.425421390200300E-003  4.534729298538300E-003  4.646737112212200E-003  4.761511518883800E-003 
 4.879120853400300E-003  4.999635138479200E-003  5.123126126399700E-003  5.249667341721700E-003 
 5.379334125062300E-003  5.512203677951300E-003  5.648355108796700E-003  5.787869479984000E-003 
 5.930829856139600E-003  6.077321353586200E-003  6.227431191019800E-003  6.381248741438000E-003 
 6.538865585351500E-003  6.700375565309700E-003  6.865874841772900E-003  7.035461950364600E-003 
 7.209237860538700E-003  7.387306035694000E-003  7.569772494775600E-003  7.756745875396600E-003 
 7.948337498518801E-003  8.144661434732300E-003  8.345834572170099E-003  8.551976686102801E-003 
 8.763210510249499E-003  8.979661809852700E-003  9.201459456556000E-003  9.428735505132900E-003 
 9.661625272109699E-003  9.900267416330800E-003  1.014480402151400E-002  1.039538068084600E-002 
 1.065214658366200E-002  1.091525460427900E-002  1.118486139300500E-002  1.146112746941200E-002 
 1.174421731790600E-002  1.203429948565900E-002  1.233154668295400E-002  1.263613588602300E-002 
 1.294824844240800E-002  1.326807017893600E-002  1.359579151235500E-002  1.393160756271100E-002 
 1.427571826950900E-002  1.462832851076600E-002  1.498964822498200E-002  1.535989253613900E-002 
 1.573928188178200E-002  1.612804214426200E-002  1.652640478522500E-002  1.693460698342000E-002 
 1.735289177591100E-002  1.778150820277600E-002  1.822071145538400E-002  1.867076302833200E-002 
 1.913193087513200E-002  1.960448956774800E-002  2.008872046007100E-002  2.058491185543500E-002 
 2.109335917826400E-002  2.161436514996700E-002  2.214823996917200E-002  2.269530149641000E-002 
 2.325587544337100E-002  2.383029556682300E-002  2.441890386732300E-002  2.502205079284600E-002 
 2.564009544742900E-002  2.627340580498100E-002  2.692235892836400E-002  2.758734119389500E-002 
 2.826874852138400E-002  2.896698660986200E-002  2.968247117912600E-002  3.041562821725000E-002 
 3.116689423421600E-002  3.193671652180100E-002  3.272555341989000E-002  3.353387458936100E-002 
 3.436216129171800E-002  3.521090667562400E-002  3.608061607051100E-002  3.697180728745300E-002 
 3.788501092745300E-002  3.882077069736100E-002  3.977964373358600E-002  4.076220093380600E-002 
 4.176902729687100E-002  4.280072227110300E-002  4.385790011120000E-002  4.494119024394600E-002 
 4.605123764297200E-002  4.718870321275300E-002  4.835426418210800E-002  4.954861450740600E-002 
 5.077246528573900E-002  5.202654517829700E-002  5.331160084420100E-002  5.462839738505300E-002 
 5.597771880046300E-002  5.736036845483500E-002  5.877716955566900E-002  6.022896564369400E-002 
 6.171662109509300E-002  6.324102163614199E-002  6.480307487055501E-002  6.640371081985801E-002 
 6.804388247710801E-002  6.972456637429300E-002  7.144676316373801E-002  7.321149821388200E-002 
 7.501982221976500E-002  7.687281182859300E-002  7.877157028075900E-002  8.071722806669400E-002 
 8.271094359994099E-002  8.475390390686000E-002  8.684732533335900E-002  8.899245426909300E-002 
 9.119056788954000E-002  9.344297491641200E-002  9.575101639684699E-002  9.811606650184899E-002 
 1.005395333444400E-001  1.030228598180500E-001  1.055675244555600E-001  1.081750423096100E-001 
 1.108469658546600E-001  1.135848859112700E-001  1.163904325932800E-001  1.192652762783300E-001 
 1.222111286024100E-001  1.252297434788800E-001  1.283229181428100E-001  1.314924942209400E-001 
 1.347403588282000E-001  1.380684456912500E-001  1.414787362998300E-001  1.449732610864300E-001 
 1.485541006352700E-001  1.522233869209600E-001  1.559833045779100E-001  1.598360922009800E-001 
 1.637840436783500E-001  1.678295095572000E-001  1.719748984432600E-001  1.762226784348100E-001 
 1.805753785921500E-001  1.850355904433800E-001  1.896059695273300E-001  1.942892369746600E-001 
 1.990881811279300E-001  2.040056592017900E-001  2.090445989840700E-001  2.142080005789800E-001 
 2.194989381932800E-001  2.249205619666500E-001  2.304760998472300E-001  2.361688595134600E-001 
 2.420022303434400E-001  2.479796854329200E-001  2.541047836631200E-001  2.603811718196000E-001 
 2.668125867635400E-001  2.734028576566000E-001  2.801559082407200E-001  2.870757591742600E-001 
 2.941665304258700E-001  3.014324437273900E-001  3.088778250874500E-001  3.165071073671100E-001 
 3.243248329190800E-001  3.323356562921800E-001  3.405443470026000E-001  3.489557923735600E-001 
 3.575750004451900E-001  3.664071029561900E-001  3.754573583992000E-001  3.847311551516600E-001 
 3.942340146839100E-001  4.039715948466000E-001  4.139496932393100E-001  4.241742506623200E-001 
 4.346513546536800E-001  4.453872431136300E-001  4.563883080185400E-001  4.676610992265900E-001 
 4.792123283774900E-001  4.910488728884100E-001  5.031777800487600E-001  5.156062712159600E-001 
 5.283417461150000E-001  5.413917872440400E-001  5.547641643889600E-001  5.684668392493700E-001 
 5.825079701788300E-001  5.968959170422500E-001  6.116392461931900E-001  6.267467355741601E-001 
 6.422273799428500E-001  6.580903962274300E-001  6.743452290142500E-001  6.910015561709000E-001 
 7.080692946083300E-001  7.255586061851500E-001  7.434799037579199E-001  7.618438573807400E-001 
 7.806614006580500E-001  7.999437372543000E-001  8.197023475644800E-001  8.399489955493300E-001 
 8.606957357393900E-001  8.819549204121599E-001  9.037392069463400E-001  9.260615653579100E-001 
 9.489352860222500E-001  9.723739875870000E-001  9.963916250804000E-001  1.021002498219900E+000 
 1.046221259925900E+000  1.072062925046100E+000  1.098542879294700E+000  1.125676888413300E+000 
 1.153481107557100E+000  1.181972090913800E+000  1.211166801559300E+000  1.241082621557900E+000 
 1.271737362310300E+000  1.303149275159400E+000  1.335337062255800E+000  1.368319887693600E+000 
 1.402117388919600E+000  1.436749688425900E+000  1.472237405730000E+000  1.508601669651600E+000 
 1.545864130892000E+000  1.584046974925000E+000  1.623172935205600E+000  1.663265306705200E+000 
 1.704347959780800E+000  1.746445354387400E+000  1.789582554640800E+000  1.833785243740400E+000 
 1.879079739260800E+000  1.925493008820500E+000  1.973052686138400E+000  2.021787087486000E+000 
 2.071725228546900E+000  2.122896841692000E+000  2.175332393681800E+000  2.229063103805800E+000 
 2.284120962469800E+000  2.340538750242800E+000  2.398350057373800E+000  2.457589303790900E+000 
 2.518291759594500E+000  2.580493566056500E+000  2.644231757138100E+000  2.709544281539400E+000 
 2.776470025293500E+000  2.845048834918200E+000  2.915321541140700E+000  2.987329983206900E+000 
 3.061117033792100E+000  3.136726624526700E+000  3.214203772152500E+000  3.293594605324700E+000 
 3.374946392076200E+000  3.458307567960500E+000  3.543727764889100E+000  3.631257840681900E+000 
 3.720949909346700E+000  3.812857372107600E+000  3.907034949198700E+000  4.003538712443900E+000 
 4.102426118641200E+000  4.203756043771700E+000  4.307588818052800E+000  4.413986261858700E+000 
 4.523011722526700E+000  4.634730112073100E+000  4.749207945841300E+000  4.866513382103500E+000 
 4.986716262641500E+000  5.109888154328800E+000  5.236102391740700E+000  5.365434120816700E+000 
 5.497960343600800E+000  5.633759964087800E+000  5.772913835200700E+000  5.915504806930200E+000 
 6.061617775661400E+000  6.211339734720200E+000  6.364759826167800E+000  6.521969393874100E+000 
 6.683062037902800E+000  6.848133670239000E+000  7.017282571893900E+000  7.190609451419700E+000 
 7.368217504869800E+000  7.550212477240100E+000  7.736702725427900E+000  7.927799282746000E+000 
 8.123615925029799E+000  8.324269238377999E+000  8.529878688566001E+000  8.740566692173500E+000 
 8.956458689470200E+000  9.177683219100100E+000  9.404371994611900E+000  9.636659982878800E+000 
 9.874685484455901E+000  1.011859021592200E+001  1.036851939425500E+001  1.062462182329300E+001 
 1.088704998232900E+001  1.115596011689200E+001  1.143151233177900E+001  1.171387068637400E+001 
 1.200320329232800E+001  1.229968241364800E+001  1.260348456926500E+001  1.291479063812600E+001 
 1.323378596688800E+001  1.356066048027000E+001  1.389560879413300E+001  1.423883033134800E+001 
 1.459052944053200E+001  1.495091551771300E+001  1.532020313100100E+001  1.569861214833700E+001 
 1.608636786840100E+001  1.648370115475000E+001  1.689084857327200E+001  1.730805253303200E+001 
 1.773556143059800E+001  1.817362979793400E+001  1.862251845394300E+001  1.908249465975500E+001 
 1.955383227785100E+001  2.003681193511400E+001  2.053172118991100E+001  2.103885470330200E+001 
 2.155851441447400E+001  2.209100972051100E+001  2.263665766060800E+001  2.319578310482500E+001 
 2.376871894751400E+001  2.435580630551800E+001  2.495739472126400E+001  2.557384237087900E+001 
 2.620551627744000E+001  2.685279252949300E+001  2.751605650497100E+001  2.819570310064400E+001 
 2.889213696723000E+001  2.960577275032000E+001  3.033703533725300E+001  3.108636011008300E+001 
 3.185419320480300E+001  3.264099177696100E+001  3.344722427385200E+001  3.427337071341600E+001 
 3.511992297003800E+001  3.598738506739800E+001  3.687627347856200E+001  3.778711743348300E+001 
 3.872045923409000E+001  3.967685457717200E+001  4.065687288522800E+001  4.166109764549300E+001 
 4.269012675733700E+001  4.374457288824300E+001  4.482506383858300E+001  4.593224291539600E+001 
 4.706676931540600E+001  4.822931851749600E+001  4.942058268487800E+001  5.064127107719500E+001 
 5.189211047280200E+001  5.317384560148000E+001  5.448723958783600E+001  5.583307440565600E+001 
 5.721215134347600E+001  5.862529148166000E+001  6.007333618125700E+001  6.155714758493400E+001 
 6.307760913028100E+001  6.463562607579900E+001  6.623212603987200E+001  6.786805955305600E+001 
 6.954440062401700E+001  7.126214731943000E+001  7.302232235821999E+001  7.482597372046800E+001 
 7.667417527136401E+001
    </PP_R>
    <PP_RAB type="real" size="541" columns="4">
 3.546495177839350E-006  3.634093608731990E-006  3.723855720867603E-006  3.815834957173120E-006 
 3.910086080615450E-006  4.006665206806557E-006  4.105629837414718E-006  4.207038894398780E-006 
 4.310952755090321E-006  4.417433288141271E-006  4.526543890358220E-006  4.638349524450026E-006 
 4.752916757704071E-006  4.870313801619243E-006  4.990610552519303E-006  5.113878633166646E-006 
 5.240191435405746E-006  5.369624163860172E-006  5.502253880707607E-006  5.638159551561149E-006 
 5.777422092484721E-006  5.920124418168940E-006  6.066351491297697E-006  6.216190373132788E-006 
 6.369730275349274E-006  6.527062613150374E-006  6.688281059695074E-006  6.853481601869682E-006 
 7.022762597435774E-006  7.196224833592608E-006  7.373971586982309E-006  7.556108685180747E-006 
 7.742744569704631E-006  7.933990360576306E-006  8.129959922482566E-006  8.330769932567801E-006 
 8.536539949902422E-006  8.747392486664889E-006  8.963453081085672E-006  9.184850372188485E-006 
 9.411716176381542E-006  9.644185565938075E-006  9.882396949416653E-006  1.012649215406742E-005 
 1.037661651027277E-005  1.063291893807643E-005  1.089555203584704E-005  1.116467217113232E-005 
 1.144043957375932E-005  1.172301843123114E-005  1.201257698648262E-005  1.230928763804868E-005 
 1.261332704270863E-005  1.292487622066349E-005  1.324412066331379E-005  1.357125044369778E-005 
 1.390646032965694E-005  1.424994989979958E-005  1.460192366232465E-005  1.496259117678399E-005 
 1.533216717885067E-005  1.571087170816831E-005  1.609893023935991E-005  1.649657381627212E-005 
 1.690403918953401E-005  1.732156895751546E-005  1.774941171076618E-005  1.818782218002202E-005 
 1.863706138786856E-005  1.909739680414913E-005  1.956910250521159E-005  2.005245933709024E-005 
 2.054775508271641E-005  2.105528463325947E-005  2.157535016370099E-005  2.210826131274447E-005 
 2.265433536716908E-005  2.321389745073831E-005  2.378728071777151E-005  2.437482655150040E-005 
 2.497688476732275E-005  2.559381382107428E-005  2.622598102245631E-005  2.687376275371158E-005 
 2.753754469372758E-005  2.821772204766151E-005  2.891469978224057E-005  2.962889286685969E-005 
 3.036072652067186E-005  3.111063646573205E-005  3.187906918643638E-005  3.266648219534176E-005 
 3.347334430556624E-005  3.430013590991397E-005  3.514734926688822E-005  3.601548879378038E-005 
 3.690507136698620E-005  3.781662662975184E-005  3.875069730750574E-005  3.970783953100104E-005 
 4.068862316741710E-005  4.169363215965217E-005  4.272346487399733E-005  4.377873445638465E-005 
 4.486006919745582E-005  4.596811290663440E-005  4.710352529542851E-005  4.826698237022507E-005 
 4.945917683477085E-005  5.068081850258908E-005  5.193263471960261E-005  5.321537079717574E-005 
 5.452979045586767E-005  5.587667628012681E-005  5.725683018424570E-005  5.867107388979597E-005 
 6.012024941487540E-005  6.160521957542311E-005  6.312686849893476E-005  6.468610215085841E-005 
 6.628384887398569E-005  6.792105994117276E-005  6.959871012172014E-005  7.131779826172659E-005 
 7.307934787878979E-005  7.488440777139622E-005  7.673405264335063E-005  7.862938374364122E-005 
 8.057152952210849E-005  8.256164630130596E-005  8.460091896494770E-005  8.669056166337997E-005 
 8.883181853646684E-005  9.102596445431705E-005  9.327430577634015E-005  9.557818112901482E-005 
 9.793896220290139E-005  1.003580545693134E-004  1.028368985171753E-004  1.053769699105487E-004 
 1.079797810673388E-004  1.106468816597033E-004  1.133798596366981E-004  1.161803421697235E-004 
 1.190499966213174E-004  1.219905315378618E-004  1.250036976668486E-004  1.280912889992179E-004 
 1.312551438375004E-004  1.344971458902858E-004  1.378192253937759E-004  1.412233602610027E-004 
 1.447115772594493E-004  1.482859532177566E-004  1.519486162622356E-004  1.557017470839131E-004 
 1.595475802368853E-004  1.634884054687368E-004  1.675265690838159E-004  1.716644753401839E-004 
 1.759045878810888E-004  1.802494312017515E-004  1.847015921524337E-004  1.892637214785999E-004 
 1.939385353991190E-004  1.987288172234793E-004  2.036374190088971E-004  2.086672632584193E-004 
 2.138213446609012E-004  2.191027318740264E-004  2.245145693513134E-004  2.300600792142900E-004 
 2.357425631708834E-004  2.415654044812040E-004  2.475320699718856E-004  2.536461121002059E-004 
 2.599111710690591E-004  2.663309769944782E-004  2.729093521262494E-004  2.796502131237623E-004 
 2.865575733879076E-004  2.936355454506065E-004  3.008883434232175E-004  3.083202855057719E-004 
 3.159357965577701E-004  3.237394107327598E-004  3.317357741778414E-004  3.399296478000544E-004 
 3.483259101006923E-004  3.569295600801825E-004  3.657457202141649E-004  3.747796395034534E-004 
 3.840366965991977E-004  3.935224030051975E-004  4.032424063594193E-004  4.132024937964955E-004 
 4.234085953932818E-004  4.338667876994958E-004  4.445832973556595E-004  4.555645048003446E-004 
 4.668169480689180E-004  4.783473266862262E-004  4.901625056553668E-004  5.022695195450604E-004 
 5.146755766778174E-004  5.273880634217565E-004  5.404145485882938E-004  5.537627879384113E-004 
 5.674407288004820E-004  5.814565148018719E-004  5.958184907174653E-004  6.105352074381897E-004 
 6.256154270619056E-004  6.410681281103472E-004  6.569025108746719E-004  6.731280028932862E-004 
 6.897542645647453E-004  7.067911948994901E-004  7.242489374135175E-004  7.421378861676213E-004 
 7.604686919559598E-004  7.792522686472686E-004  7.984997996828688E-004  8.182227447350287E-004 
 8.384328465299786E-004  8.591421378392829E-004  8.803629486438910E-004  9.021079134754042E-004 
 9.243899789382446E-004  9.472224114180170E-004  9.706188049800465E-004  9.945930894630641E-004 
 1.019159538772801E-003  1.044332779380472E-003  1.070127799031188E-003  1.096559955667243E-003 
 1.123644986572237E-003  1.151399017740561E-003  1.179838573478753E-003  1.208980586243677E-003 
 1.238842406723897E-003  1.269441814169984E-003  1.300797026979984E-003  1.332926713546395E-003 
 1.365850003370971E-003  1.399586498454248E-003  1.434156284966058E-003  1.469579945204719E-003 
 1.505878569851269E-003  1.543073770526600E-003  1.581187692658615E-003  1.620243028667290E-003 
 1.660263031475360E-003  1.701271528352812E-003  1.743292935103125E-003  1.786352270600164E-003 
 1.830475171683991E-003  1.875687908424581E-003  1.922017399762662E-003  1.969491229536806E-003 
 2.018137662906357E-003  2.067985663180155E-003  2.119064909060694E-003  2.171405812314494E-003 
 2.225039535878672E-003  2.279998012414884E-003  2.336313963321522E-003  2.394020918215561E-003 
 2.453153234895372E-003  2.513746119797344E-003  2.575835648956440E-003  2.639458789485607E-003 
 2.704653421585966E-003  2.771458361099137E-003  2.839913382618325E-003  2.910059243168900E-003 
 2.981937706475300E-003  3.055591567825007E-003  3.131064679550326E-003  3.208401977135282E-003 
 3.287649505970592E-003  3.368854448767906E-003  3.452065153652622E-003  3.537331162947700E-003 
 3.624703242672635E-003  3.714233412766620E-003  3.805974978062011E-003  3.899982560020037E-003 
 3.996312129252673E-003  4.095021038845086E-003  4.196168058504490E-003  4.299813409549587E-003 
 4.406018800765467E-003  4.514847465144469E-003  4.626364197533501E-003  4.740635393212699E-003 
 4.857729087424953E-003  4.977714995884353E-003  5.100664556282592E-003  5.226650970822858E-003 
 5.355749249802162E-003  5.488036256272178E-003  5.623590751802192E-003  5.762493443371790E-003 
 5.904827031423013E-003  6.050676259099089E-003  6.200127962699004E-003  6.353271123377693E-003 
 6.510196920125022E-003  6.670998784052123E-003  6.835772454018258E-003  7.004616033632368E-003 
 7.177630049663228E-003  7.354917511889935E-003  7.536583974433457E-003  7.722737598601963E-003 
 7.913489217287489E-003  8.108952400954460E-003  8.309243525258112E-003  8.514481840331885E-003 
 8.724789541788158E-003  8.940291843470416E-003  9.161117052003944E-003  9.387396643188436E-003 
 9.619265340275287E-003  9.856861194180024E-003  1.010032566567625E-002  1.034980370961843E-002 
 1.060544386124602E-002  1.086739832461889E-002  1.113582306323706E-002  1.141087789289882E-002 
 1.169272657685350E-002  1.198153692330169E-002  1.227748088530739E-002  1.258073466317438E-002 
 1.289147880935493E-002  1.320989833594598E-002  1.353618282484366E-002  1.387052654061736E-002 
 1.421312854617062E-002  1.456419282126111E-002  1.492392838394617E-002  1.529254941502960E-002 
 1.567027538558103E-002  1.605733118760468E-002  1.645394726793857E-002  1.686035976545661E-002 
 1.727681065166360E-002  1.770354787475955E-002  1.814082550726603E-002  1.858890389729549E-002 
 1.904804982355883E-002  1.951853665420064E-002  2.000064450955936E-002  2.049466042894566E-002 
 2.100087854154041E-002  2.151960024151663E-002  2.205113436748208E-002  2.259579738635878E-002 
 2.315391358180183E-002  2.372581524727235E-002  2.431184288388000E-002  2.491234540311218E-002 
 2.552768033456828E-002  2.615821403883286E-002  2.680432192559109E-002  2.746638867715369E-002 
 2.814480847747918E-002  2.883998524687389E-002  2.955233288246994E-002  3.028227550466903E-002 
 3.103024770963240E-002  3.179669482806119E-002  3.258207319031339E-002  3.338685039811613E-002 
 3.421150560294881E-002  3.505652979134131E-002  3.592242607718696E-002  3.680971000129516E-002 
 3.771890983832728E-002  3.865056691133317E-002  3.960523591404194E-002  4.058348524111931E-002 
 4.158589732657451E-002  4.261306899054124E-002  4.366561179460838E-002  4.474415240593453E-002 
 4.584933297036141E-002  4.698181149472831E-002  4.814226223864892E-002  4.933137611594310E-002 
 5.054986110600679E-002  5.179844267532496E-002  5.307786420940567E-002  5.438888745537944E-002 
 5.573229297552723E-002  5.710888061202266E-002  5.851946996313969E-002  5.996490087122843E-002 
 6.144603392274691E-002  6.296375096063915E-002  6.451895560936705E-002  6.611257381291814E-002 
 6.774555438609910E-002  6.941886957943454E-002  7.113351565804707E-002  7.289051349480143E-002 
 7.469090917812278E-002  7.653577463482082E-002  7.842620826830067E-002  8.036333561252851E-002 
 8.234831000215746E-002  8.438231325921119E-002  8.646655639671312E-002  8.860228033971289E-002 
 9.079075666410275E-002  9.303328835370697E-002  9.533121057604457E-002  9.768589147727268E-002 
 1.000987329967598E-001  1.025711717017812E-001  1.051046796428137E-001  1.077007652299911E-001 
 1.103609741311741E-001  1.130868901922139E-001  1.158801363799614E-001  1.187423757485445E-001 
 1.216753124295346E-001  1.246806926465455E-001  1.277603057549146E-001  1.309159853070611E-001 
 1.341496101441438E-001  1.374631055147056E-001  1.408584442209171E-001  1.443376477931749E-001 
 1.479027876936669E-001  1.515559865496995E-001  1.552994194174774E-001  1.591353150770880E-001 
 1.630659573594923E-001  1.670936865062718E-001  1.712209005629766E-001  1.754500568068826E-001 
 1.797836732100135E-001  1.842243299383012E-001  1.887746708877765E-001  1.934374052587053E-001 
 1.982153091685947E-001  2.031112273050581E-001  2.081280746194946E-001  2.132688380625941E-001 
 2.185365783627406E-001  2.239344318482999E-001  2.294656123149536E-001  2.351334129391326E-001 
 2.409412082387291E-001  2.468924560822266E-001  2.529906997474509E-001  2.592395700312106E-001 
 2.656427874109976E-001  2.722041642600365E-001  2.789276071172537E-001  2.858171190130512E-001 
 2.928768018526873E-001  3.001108588584365E-001  3.075235970722373E-001  3.151194299199253E-001 
 3.229028798389545E-001  3.308785809709734E-001  3.390512819209646E-001  3.474258485844103E-001 
 3.560072670444380E-001  3.648006465404322E-001  3.738112225099928E-001  3.830443597059964E-001 
 3.925055553907363E-001  4.022004426088752E-001  4.121347935413064E-001  4.223145229417812E-001 
 4.327456916584458E-001  4.434345102424151E-001  4.543873426454035E-001  4.656107100087353E-001 
 4.771112945459524E-001  4.888959435212393E-001  5.009716733262063E-001  5.133456736573684E-001 
 5.260253117967162E-001  5.390181369980827E-001  5.523318849819445E-001  5.659744825409981E-001 
 5.799540522597564E-001  5.942789173505822E-001  6.089576066091344E-001  6.239988594923747E-001 
 6.394116313218434E-001  6.552050986154986E-001  6.713886645512898E-001  6.879719645657119E-001 
 7.049648720904873E-001  7.223775044311082E-001  7.402202287905588E-001  7.585036684416819E-001 
 7.772387090522147E-001  7.964365051657890E-001  8.161084868433855E-001  8.362663664684136E-001 
 8.569221457201985E-001  8.780881227194891E-001  8.997768993506425E-001  9.220013887646160E-001 
 9.447748230671014E-001  9.681107611968582E-001  9.920230969984170E-001  1.016526067494275E+000 
 1.041634261361391E+000  1.067362627617012E+000  1.093726484519162E+000  1.120741528686785E+000 
 1.148423844445342E+000  1.176789913403129E+000  1.205856624264183E+000  1.235641282883521E+000 
 1.266161622570750E+000  1.297435814648243E+000  1.329482479270041E+000  1.362320696508022E+000 
 1.395970017711777E+000  1.430450477149262E+000  1.465782603934848E+000  1.501987434252038E+000 
 1.539086523878042E+000  1.577101961017831E+000  1.616056379454990E+000  1.655972972027508E+000 
 1.696875504436600E+000  1.738788329396179E+000  1.781736401132266E+000  1.825745290240232E+000 
 1.870841198909177E+000
    </PP_RAB>
  </PP_MESH>
  <PP_LOCAL type="real" size="541" columns="4">
-7.329137609345600E+000 -7.329137630902200E+000 -7.329137651934000E+000 -7.329137672453400E+000 
-7.329137692472400E+000 -7.329137712003000E+000 -7.329137731056600E+000 -7.329137749644200E+000 
-7.329137767776800E+000 -7.329137785465200E+000 -7.329137802719400E+000 -7.329137819549800E+000 
-7.329137835966200E+000 -7.329137851977800E+000 -7.329137867594400E+000 -7.329137882824800E+000 
-7.329137897677800E+000 -7.329137912162000E+000 -7.329137926285800E+000 -7.329137940057400E+000 
-7.329137953484400E+000 -7.329137966575000E+000 -7.329137979336200E+000 -7.329137991775400E+000 
-7.329138003899600E+000 -7.329138015715600E+000 -7.329138027230400E+000 -7.329138038449800E+000 
-7.329138049380600E+000 -7.329138060028600E+000 -7.329138070399800E+000 -7.329138080499600E+000 
-7.329138090333600E+000 -7.329138099907200E+000 -7.329138109225200E+000 -7.329138118293000E+000 
-7.329138127114800E+000 -7.329138135695600E+000 -7.329138144039600E+000 -7.329138152151000E+000 
-7.329138160034000E+000 -7.329138167692200E+000 -7.329138175129400E+000 -7.329138182349200E+000 
-7.329138189354600E+000 -7.329138196149200E+000 -7.329138202735800E+000 -7.329138209117000E+000 
-7.329138215295600E+000 -7.329138221274000E+000 -7.329138227054600E+000 -7.329138232639200E+000 
-7.329138238030000E+000 -7.329138243228400E+000 -7.329138248236200E+000 -7.329138253054400E+000 