<UPF version="2.0.1">
  <PP_INFO>
    Generated using FHI98PP, converted with fhi2upf.x v.5.0.1
    Author: Abinit web site
    Generation date: 10-Jul-2012, PG
    Pseudopotential type: SL
    Element: Ti
    Functional: SLA-PW

    Suggested minimum cutoff for wavefunctions:   0. Ry
    Suggested minimum cutoff for charge density:   0. Ry
    The Pseudo was generated with a Non-Relativistic Calculation
    L component and cutoff radius for Local Potential:  1   0.0000

    Valence configuration: 
    nl pn  l   occ       Rcut    Rcut US       E pseu
    4s  4  0  2.00      0.000      0.000     0.000000
    4p  4  1  2.00      0.000      0.000     0.000000
    3d  3  2  0.00      0.000      0.000     0.000000
    4f  4  3  0.00      0.000      0.000     0.000000

    Generation configuration: not available.
    Comment:
    titanium, fhi98PP : Trouiller-Martins-type, LDA Ceperley/Alder Perdew/Wang (1992
  </PP_INFO>
  <!--                               -->
  <!-- END OF HUMAN READABLE SECTION -->
  <!--                               -->
  <PP_HEADER generated="Generated using FHI98PP, converted with fhi2upf.x v.5.0.1"
             author="Abinit web site"
             date="10-Jul-2012, PG"
             comment="titanium, fhi98PP : Trouiller-Martins-type, LDA Ceperley/Alder Perdew/Wang (1992"
             element="Ti"
             pseudo_type="SL"
             relativistic="no"
             is_ultrasoft="F"
             is_paw="F"
             is_coulomb="F"
             has_so="F"
             has_wfc="F"
             has_gipaw="F"
             paw_as_gipaw="F"
             core_correction="F"
             functional="SLA-PW"
             z_valence="4.000000000000000E+000"
             total_psenergy="0.000000000000000E+000"
             wfc_cutoff="0.000000000000000E+000"
             rho_cutoff="0.000000000000000E+000"
             l_max="3"
             l_max_rho="0"
             l_local="1"
             mesh_size="515"
             number_of_wfc="4"
             number_of_proj="3"/>
  <PP_MESH dx="2.439988682353512E-002" mesh="515" xmin="-5.075173815233824E+000" rmax="7.946570609385500E+001"
zmesh="2.200000000000000E+001">
    <PP_R type="real" size="515" columns="4">
 2.840909090909100E-004  2.911079545454500E-004  2.982983210227300E-004  3.056662895519900E-004 
 3.132162469039200E-004  3.209526882024500E-004  3.288802196010500E-004  3.370035610252000E-004 
 3.453275489825200E-004  3.538571394423900E-004  3.625974107866100E-004  3.715535668330400E-004 
 3.807309399338200E-004  3.901349941501800E-004  3.997713285056900E-004  4.096456803197800E-004 
 4.197639286236800E-004  4.301320976606900E-004  4.407563604729100E-004  4.516430425765900E-004 
 4.627986257282300E-004  4.742297517837200E-004  4.859432266527700E-004  4.979460243511000E-004 
 5.102452911525700E-004  5.228483498440400E-004  5.357627040851900E-004  5.489960428760900E-004 
 5.625562451351300E-004  5.764513843899700E-004  5.906897335844000E-004  6.052797700039300E-004 
 6.202301803230300E-004  6.355498657770100E-004  6.512479474617000E-004  6.673337717640100E-004 
 6.838169159265800E-004  7.007071937499600E-004  7.180146614355900E-004  7.357496235730500E-004 
 7.539226392753000E-004  7.725445284654000E-004  7.916263783185000E-004  8.111795498629600E-004 
 8.312156847445800E-004  8.517467121577701E-004  8.727848559480699E-004  8.943426418899800E-004 
 9.164329051446699E-004  9.390687979017399E-004  9.622637972099101E-004  9.860317130010001E-004 
 1.010386696312100E-003  1.035343247711000E-003  1.060916225929500E-003  1.087120856710000E-003 
 1.113972741870700E-003  1.141487868594900E-003  1.169682618949200E-003  1.198573779637200E-003 
 1.228178551994300E-003  1.258514562228500E-003  1.289599871915600E-003  1.321452988751900E-003 
 1.354092877574100E-003  1.387538971650100E-003  1.421811184249900E-003  1.456929920500900E-003 
 1.492916089537200E-003  1.529791116948800E-003  1.567576957537400E-003  1.606296108388600E-003 
 1.645971622265800E-003  1.686627121335800E-003  1.728286811232800E-003  1.770975495470200E-003 
 1.814718590208300E-003  1.859542139386500E-003  1.905472830229300E-003  1.952538009136000E-003 
 2.000765697961700E-003  2.050184610701300E-003  2.100824170585600E-003  2.152714527599100E-003 
 2.205886576430800E-003  2.260371974868600E-003  2.316203162647900E-003  2.373413380765300E-003 
 2.432036691270200E-003  2.492107997544600E-003  2.553663065083900E-003  2.616738542791500E-003 
 2.681371984798400E-003  2.747601872823000E-003  2.815467639081700E-003  2.885009689767000E-003 
 2.956269429104300E-003  3.029289284003100E-003  3.104112729318000E-003  3.180784313732200E-003 
 3.259349686281300E-003  3.339855623532500E-003  3.422350057433800E-003  3.506882103852400E-003 
 3.593502091817500E-003  3.682261593485400E-003  3.773213454844500E-003  3.866411827179200E-003 
 3.961912199310500E-003  4.059771430633500E-003  4.160047784970100E-003  4.262800965258900E-003 
 4.368092149100800E-003  4.475984025183500E-003  4.586540830605600E-003  4.699828389121500E-003 
 4.815914150332800E-003  4.934867229846100E-003  5.056758450423300E-003  5.181660384148700E-003 
 5.309647395637200E-003  5.440795686309400E-003  5.575183339761300E-003  5.712890368253400E-003 
 5.853998760349200E-003  5.998592529729800E-003  6.146757765214200E-003  6.298582682015000E-003 
 6.454157674260700E-003  6.613575368815000E-003  6.776930680424700E-003  6.944320868231200E-003 
 7.115845593676500E-003  7.291606979840300E-003  7.471709672242400E-003  7.656260901146700E-003 
 7.845370545405100E-003  8.039151197876600E-003  8.237718232464100E-003  8.441189872805999E-003 
 8.649687262664300E-003  8.863334538052100E-003  9.082258901142001E-003  9.306590696000200E-003 
 9.536463486191400E-003  9.772014134300301E-003  1.001338288341800E-002  1.026071344063800E-002 
 1.051415306262200E-002  1.077385264326800E-002  1.103996680355700E-002  1.131265398360500E-002 
 1.159207653700000E-002  1.187840082746400E-002  1.217179732790200E-002  1.247244072190200E-002 
 1.278051000773300E-002  1.309618860492400E-002  1.341966446346500E-002  1.375113017571300E-002 
 1.409078309105300E-002  1.443882543340200E-002  1.479546442160700E-002  1.516091239282100E-002 
 1.553538692892300E-002  1.591911098606800E-002  1.631231302742300E-002  1.671522715920100E-002 
 1.712809327003300E-002  1.755115717380300E-002  1.798467075599600E-002  1.842889212366900E-002 
 1.888408575912400E-002  1.935052267737400E-002  1.982848058750500E-002  2.031824405801600E-002 
 2.082010468624900E-002  2.133436127200000E-002  2.186131999541800E-002  2.240129459930500E-002 
 2.295460657590800E-002  2.352158535833300E-002  2.410256851668400E-002  2.469790195904600E-002 
 2.530794013743400E-002  2.593304625882900E-002  2.657359250142200E-002  2.722996023620700E-002 
 2.790254025404100E-002  2.859173299831600E-002  2.929794880337400E-002  3.002160813881800E-002 
 3.076314185984700E-002  3.152299146378500E-002  3.230160935294000E-002  3.309945910395800E-002 
 3.391701574382600E-002  3.475476603269800E-002  3.561320875370600E-002  3.649285500992200E-002 
 3.739422852866700E-002  3.831786597332600E-002  3.926431726286700E-002  4.023414589925900E-002 
 4.122792930297100E-002  4.224625915675500E-002  4.328974175792600E-002  4.435899837934700E-002 
 4.545466563931700E-002  4.657739588060800E-002  4.772785755885900E-002  4.890673564056300E-002 
 5.011473201088500E-002  5.135256589155400E-002  5.262097426907500E-002  5.392071233352100E-002 
 5.525255392815900E-002  5.661729201018500E-002  5.801573912283600E-002  5.944872787917000E-002 
 6.091711145778600E-002  6.242176411079300E-002  6.396358168433000E-002  6.554348215193299E-002 
 6.716240616108500E-002  6.882131759326400E-002  7.052120413781800E-002  7.226307788002199E-002 
 7.404797590365900E-002  7.587696090847899E-002  7.775112184291801E-002  7.967157455243799E-002 
 8.163946244388399E-002  8.365595716624800E-002  8.572225930825400E-002  8.783959911316799E-002 
 9.000923721126300E-002  9.223246537038100E-002  9.451060726502999E-002  9.684501926447600E-002 
 9.923709124030800E-002  1.016882473939400E-001  1.041999471045700E-001  1.067736857980600E-001 
 1.094109958372700E-001  1.121134474344500E-001  1.148826495860800E-001  1.177202510308600E-001 
 1.206279412313200E-001  1.236074513797300E-001  1.266605554288100E-001  1.297890711479000E-001 
 1.329948612052600E-001  1.362798342770300E-001  1.396459461836700E-001  1.430952010544100E-001 
 1.466296525204500E-001  1.502514049377000E-001  1.539626146396700E-001  1.577654912212700E-001 
 1.616622988544300E-001  1.656553576361400E-001  1.697470449697500E-001  1.739397969805000E-001 
 1.782361099659200E-001  1.826385418820800E-001  1.871497138665600E-001  1.917723117990700E-001 
 1.965090879005100E-001  2.013628623716500E-001  2.063365250722300E-001  2.114330372415100E-001 
 2.166554332613800E-001  2.220068224629300E-001  2.274903909777700E-001  2.331094036349200E-001 
 2.388672059047000E-001  2.447672258905500E-001  2.508129763700400E-001  2.570080568863800E-001 
 2.633561558914800E-001  2.698610529420000E-001  2.765266209496600E-001  2.833568284871200E-001 
 2.903557421507500E-001  2.975275289818800E-001  3.048764589477300E-001  3.124069074837400E-001 
 3.201233580985900E-001  3.280304050436200E-001  3.361327560482000E-001  3.444352351225900E-001 
 3.529427854301200E-001  3.616604722302400E-001  3.705934858943300E-001  3.797471449959200E-001 
 3.891268994773200E-001  3.987383338944100E-001  4.085871707416000E-001  4.186792738589200E-001 
 4.290206519232300E-001  4.396174620257300E-001  4.504760133377700E-001  4.616027708672100E-001 
 4.730043593076300E-001  4.846875669825300E-001  4.966593498870000E-001  5.089268358292099E-001 
 5.214973286741900E-001  5.343783126924400E-001  5.475774570159500E-001  5.611026202042400E-001 
 5.749618549232900E-001  5.891634127398900E-001  6.037157490345700E-001  6.186275280357200E-001 
 6.339076279782000E-001  6.495651463892600E-001  6.656094055050800E-001  6.820499578210500E-001 
 6.988965917792300E-001  7.161593375961800E-001  7.338484732348100E-001  7.519745305237100E-001 
 7.705483014276400E-001  7.895808444729000E-001  8.090834913313800E-001  8.290678535672700E-001 
 8.495458295503800E-001  8.705296115402800E-001  8.920316929453200E-001  9.140648757610700E-001 
 9.366422781923700E-001  9.597773424637200E-001  9.834838428225700E-001  1.007775893740300E+000 
 1.032667958315700E+000  1.058174856886100E+000  1.084311775851200E+000  1.111094276714700E+000 
 1.138538305349500E+000  1.166660201491700E+000  1.195476708468500E+000  1.225004983167700E+000 
 1.255262606251900E+000  1.286267592626300E+000  1.318038402164200E+000  1.350593950697700E+000 
 1.383953621279900E+000  1.418137275725500E+000  1.453165266435900E+000  1.489058448516900E+000 
 1.525838192195300E+000  1.563526395542500E+000  1.602145497512400E+000  1.641718491301000E+000 
 1.682268938036100E+000  1.723820980805600E+000  1.766399359031500E+000  1.810029423199600E+000 
 1.854737149952600E+000  1.900549157556400E+000  1.947492721748100E+000  1.995595791975200E+000 
 2.044887008037000E+000  2.095395717135500E+000  2.147151991348800E+000  2.200186645535100E+000 
 2.254531255679800E+000  2.310218177695100E+000  2.367280566684200E+000  2.425752396681300E+000 
 2.485668480879300E+000  2.547064492357000E+000  2.609976985318200E+000  2.674443416855600E+000 
 2.740502169251900E+000  2.808192572832500E+000  2.877554929381400E+000  2.948630536137100E+000 
 3.021461710379700E+000  3.096091814626100E+000  3.172565282447400E+000  3.250927644923800E+000 
 3.331225557753400E+000  3.413506829030000E+000  3.497820447707000E+000  3.584216612765400E+000 
 3.672746763100700E+000  3.763463608149200E+000  3.856421159270500E+000  3.951674761904500E+000 
 4.049281128523600E+000  4.149298372398100E+000  4.251786042196300E+000  4.356805157438600E+000 
 4.464418244827300E+000  4.574689375474500E+000  4.687684203048800E+000  4.803470002864100E+000 
 4.922115711934800E+000  5.043691970019600E+000  5.168271161679100E+000  5.295927459372500E+000 
 5.426736867619000E+000  5.560777268249200E+000  5.698128466775000E+000  5.838872239904300E+000 
 5.983092384230000E+000  6.130874766120400E+000  6.282307372843600E+000  6.437480364952900E+000 
 6.596486129967200E+000  6.759419337377400E+000  6.926376995010600E+000  7.097458506787400E+000 
 7.272765731905000E+000  7.452403045483100E+000  7.636477400706500E+000  7.825098392503900E+000 
 8.018378322798799E+000  8.216432267371900E+000  8.419378144375999E+000  8.627336784542100E+000 
 8.840432003120300E+000  9.058790673597400E+000  9.282542803235200E+000  9.511821610475099E+000 
 9.746763604253900E+000  9.987508665278900E+000  1.023420012931100E+001  1.048698487250500E+001 
 1.074601339885600E+001  1.101143992980800E+001  1.128342249607400E+001  1.156212303172700E+001 
 1.184770747061100E+001  1.214034584513500E+001  1.244021238751000E+001  1.274748563348100E+001 
 1.306234852862800E+001  1.338498853728500E+001  1.371559775415600E+001  1.405437301868400E+001 
 1.440151603224600E+001  1.475723347824200E+001  1.512173714515500E+001  1.549524405264000E+001 
 1.587797658074000E+001  1.627016260228400E+001  1.667203561856100E+001  1.708383489833900E+001 
 1.750580562032800E+001  1.793819901915000E+001  1.838127253492300E+001  1.883528996653600E+001 
 1.930052162870900E+001  1.977724451293800E+001  2.026574245240800E+001  2.076630629098300E+001 
 2.127923405637000E+001  2.180483113756200E+001  2.234341046666000E+001  2.289529270518600E+001 
 2.346080643500500E+001  2.404028835394900E+001  2.463408347629200E+001  2.524254533815600E+001 
 2.586603620800900E+001  2.650492730234600E+001  2.715959900671400E+001  2.783044110218000E+001 
 2.851785299740400E+001  2.922224396644000E+001  2.994403339241100E+001  3.068365101720300E+001 
 3.144153719732800E+001  3.221814316610200E+001  3.301393130230500E+001  3.382937540547200E+001 
 3.466496097798700E+001  3.552118551414300E+001  3.639855879634300E+001  3.729760319861200E+001 
 3.821885399761800E+001  3.916285969135900E+001  4.013018232573600E+001  4.112139782918200E+001 
 4.213709635556200E+001  4.317788263554500E+001  4.424437633664300E+001  4.533721243215800E+001 
 4.645704157923200E+001  4.760453050623900E+001  4.878036240974300E+001  4.998523736126400E+001 
 5.121987272408700E+001  5.248500358037200E+001  5.378138316880700E+001  5.510978333307700E+001 
 5.647099498140400E+001  5.786582855744400E+001  5.929511452281300E+001  6.075970385152700E+001 
 6.226046853666000E+001  6.379830210951500E+001  6.537412017162001E+001  6.698886093985899E+001 
 6.864348580507399E+001  7.033897990445899E+001  7.207635270809899E+001  7.385663861998900E+001 
 7.568089759390300E+001  7.755021576447200E+001  7.946570609385500E+001
    </PP_R>
    <PP_RAB type="real" size="515" columns="4">
 6.931786029413409E-006  7.103001144339786E-006  7.278445272605160E-006  7.458222870838471E-006 
 7.642440975748082E-006  7.831209267849136E-006  8.024640136764996E-006  8.222848748143191E-006 
 8.425953112222269E-006  8.634074154094202E-006  8.847335785700157E-006  9.065864979606969E-006 
 9.289791844603356E-006  9.519249703164929E-006  9.754375170833116E-006  9.995308237552680E-006 
 1.024219235102027E-005  1.049517450209059E-005  1.075440531229225E-005  1.102003912350585E-005 
 1.129223408985640E-005  1.157115227187592E-005  1.185695973299106E-005  1.214982663839610E-005 
 1.244992735636443E-005  1.275744056206667E-005  1.307254934394977E-005  1.339544131274523E-005 
 1.372630871317005E-005  1.406534853838541E-005  1.441276264728347E-005  1.476875788467126E-005 
 1.513354620442271E-005  1.550734479567198E-005  1.589037621212503E-005  1.628286850456466E-005 
 1.668505535662738E-005  1.709717622393592E-005  1.751947647666728E-005  1.795220754564099E-005 
 1.839562707201822E-005  1.884999906069707E-005  1.931559403749640E-005  1.979268921022239E-005 
 2.028156863371500E-005  2.078252337896773E-005  2.129585170642831E-005  2.182185924357691E-005 
 2.236085916689345E-005  2.291317238831563E-005  2.347912774630695E-005  2.405906220164087E-005 
 2.465332103802079E-005  2.526225806765969E-005  2.588623584193182E-005  2.652562586722854E-005 
 2.718080882614819E-005  2.785217480415389E-005  2.854012352181664E-005  2.924506457280440E-005 
 2.996741766775417E-005  3.070761288414625E-005  3.146609092238603E-005  3.224330336816859E-005 
 3.303971296136304E-005  3.385579387150675E-005  3.469203198013400E-005  3.554892517004398E-005 
 3.642698362174230E-005  3.732673011720010E-005  3.824870035109408E-005  3.919344324976675E-005 
 4.016152129803603E-005  4.115351087409836E-005  4.217000259268873E-005  4.321160165672691E-005 
 4.427892821764774E-005  4.537261774462497E-005  4.649332140291607E-005  4.764170644156899E-005 
 4.881845659067673E-005  5.002427246846513E-005  5.125987199843568E-005  5.252599083679791E-005 
 5.382338281046687E-005  5.515282036588441E-005  5.651509502892287E-005  5.791101787613718E-005 
 5.934142001767771E-005  6.080715309211498E-005  6.230908977348897E-005  6.384812429089481E-005 
 6.542517296087870E-005  6.704117473301435E-005  6.869709174891911E-005  7.039390991511697E-005 
 7.213263949002171E-005  7.391431568542337E-005  7.573999928285391E-005  7.761077726514150E-005 
 7.952776346358842E-005  8.149209922114032E-005  8.350495407190364E-005  8.556752643747930E-005 
 8.768104434048371E-005  8.984676613569386E-005  9.206598125924574E-005  9.434001099635011E-005 
 9.667020926795932E-005  9.905796343687868E-005  1.015046951337684E-004  1.040118611035734E-004 
 1.065809540728318E-004  1.092135036384286E-004  1.119110771782994E-004  1.146752807846020E-004 
 1.175077602199816E-004  1.204102018974171E-004  1.233843338842833E-004  1.264319269312238E-004 
 1.295547955264257E-004  1.327547989759274E-004  1.360338425106343E-004  1.393938784206468E-004 
 1.428369072176354E-004  1.463649788259103E-004  1.499801938029122E-004  1.536847045898443E-004 
 1.574807167932117E-004  1.613704904980056E-004  1.653563416133055E-004  1.694406432511544E-004 
 1.736258271394577E-004  1.779143850698020E-004  1.823088703810272E-004  1.868118994794365E-004 
 1.914261533965805E-004  1.961543793854758E-004  2.009993925562958E-004  2.059640775524372E-004 
 2.110513902679822E-004  2.162643596076012E-004  2.216060892899093E-004  2.270797596953698E-004 
 2.326886297598453E-004  2.384360389149129E-004  2.443254090761230E-004  2.503602466802928E-004 
 2.565441447733020E-004  2.628807851491839E-004  2.693739405423756E-004  2.760274768737757E-004 
 2.828453555525570E-004  2.898316358347075E-004  2.969904772398160E-004  3.043261420276595E-004 
 3.118429977357432E-004  3.195455197798159E-004  3.274382941183622E-004  3.355260199830958E-004 
 3.438135126766756E-004  3.523057064397893E-004  3.610076573888514E-004  3.699245465263634E-004 
 3.790616828255480E-004  3.884245063913537E-004  3.980185916991987E-004  4.078496509141849E-004 
 4.179235372917588E-004  4.282462486628698E-004  4.388239310048442E-004  4.496628821006614E-004 
 4.607695552885570E-004  4.721505633041754E-004  4.838126822177852E-004  4.957628554685554E-004 
 5.080081979986288E-004  5.205560004892107E-004  5.334137337012845E-004  5.465890529237105E-004 
 5.600898025309303E-004  5.739240206534460E-004  5.880999439635904E-004  6.026260125794888E-004 
 6.175108750901914E-004  6.327633937049285E-004  6.483926495294384E-004  6.644079479728124E-004 
 6.808188242877333E-004  6.976350492476449E-004  7.148666349640518E-004  7.325238408476801E-004 
 7.506171797166225E-004  7.691574240556177E-004  7.881556124297795E-004  8.076230560568044E-004 
 8.275713455414133E-004  8.480123577762740E-004  8.689582630133567E-004  8.904215321097734E-004 
 9.124149439528830E-004  9.349515930685419E-004  9.580448974173311E-004  9.817086063835193E-004 
 1.005956808961200E-003  1.030803942142556E-003  1.056264799513457E-003  1.082354540061445E-003 
 1.109088697200965E-003  1.136483188021826E-003  1.164554322765965E-003  1.193318814538289E-003 
 1.222793789257387E-003  1.252996795852048E-003  1.283945816709584E-003  1.315659278382307E-003 
 1.348156062558350E-003  1.381455517303553E-003  1.415577468580937E-003  1.450542232054885E-003 
 1.486370625186653E-003  1.523083979628756E-003  1.560704153925596E-003  1.599253546527559E-003 
 1.638755109126772E-003  1.679232360322208E-003  1.720709399622176E-003  1.763210921792841E-003 
 1.806762231561135E-003  1.851389258680686E-003  1.897118573370089E-003  1.943977402132328E-003 
 1.991993643965015E-003  2.041195886970953E-003  2.091613425379128E-003  2.143276276985995E-003 
 2.196215201027543E-003  2.250461716492919E-003  2.306048120890308E-003  2.363007509476293E-003 
 2.421373794960344E-003  2.481181727695776E-003  2.542466916369854E-003  2.605265849204363E-003 
 2.669615915679660E-003  2.735555428796934E-003  2.803123647888196E-003  2.872360801991128E-003 
 2.943308113800253E-003  3.016007824211032E-003  3.090503217469061E-003  3.166838646940508E-003 
 3.245059561520106E-003  3.325212532689654E-003  3.407345282247024E-003  3.491506710718608E-003 
 3.577746926473261E-003  3.666117275557026E-003  3.756670372263500E-003  3.849460130458412E-003 
 3.944541795680604E-003  4.041971978034051E-003  4.141808685891426E-003  4.244111360432875E-003 
 4.348940911035608E-003  4.456359751538231E-003  4.566431837401046E-003  4.679222703784997E-003 
 4.794799504568559E-003  4.913231052331339E-003  5.034587859323929E-003  5.158942179449131E-003 
 5.286368051281639E-003  5.416941342148146E-003  5.550739793299343E-003  5.687843066193815E-003 
 5.828332789928741E-003  5.972292609840076E-003  6.119808237302965E-003  6.270967500764348E-003 
 6.425860398033383E-003  6.584579149864820E-003  6.747218254866300E-003  6.913874545761581E-003 
 7.084647247041846E-003  7.259638034043937E-003  7.438951093484764E-003  7.622693185493863E-003 
 7.810973707175601E-003  8.003904757742713E-003  8.201601205259019E-003  8.404180755028905E-003 
 8.611764019678168E-003  8.824474590964122E-003  9.042439113361011E-003  9.265787359461030E-003 
 9.494652307239736E-003  9.729170219228561E-003  9.969480723643460E-003  1.021572689751751E-002 
 1.046805535188607E-002  1.072661631907756E-002  1.099156374215889E-002  1.126305536659014E-002 
 1.154125283414491E-002  1.182632177914833E-002  1.211843192709333E-002  1.241775719569256E-002 
 1.272447579842613E-002  1.303877035064720E-002  1.336082797830835E-002  1.369084042937247E-002 
 1.402900418797810E-002  1.437552059142103E-002  1.473059595002924E-002  1.509444166999487E-002 
 1.546727437924369E-002  1.584931605641097E-002  1.624079416300445E-002  1.664194177883052E-002 
 1.705299774076764E-002  1.747420678496467E-002  1.790581969255341E-002  1.834809343895948E-002 
 1.880129134690164E-002  1.926568324317005E-002  1.974154561927633E-002  2.022916179607257E-002 
 2.072882209243553E-002  2.124082399811883E-002  2.176547235087224E-002  2.230307951793880E-002 
 2.285396558203193E-002  2.341845853190808E-002  2.399689445764611E-002  2.458961775075028E-002 
 2.519698130919416E-002  2.581934674753131E-002  2.645708461219566E-002  2.711057460211630E-002 
 2.778020579478727E-002  2.846637687792016E-002  2.916949638680369E-002  2.988998294755842E-002 
 3.062826552636209E-002  3.138478368486270E-002  3.215998784187955E-002  3.295433954157505E-002 
 3.376831172825115E-002  3.460238902793862E-002  3.545706803692822E-002  3.633285761744116E-002 
 3.723027920059275E-002  3.814986709684681E-002  3.909216881413893E-002  4.005774538384923E-002 
 4.104717169482946E-002  4.206103683569195E-002  4.309994444553358E-002  4.416451307333880E-002 
 4.525537654624953E-002  4.637318434694118E-002  4.751860200031201E-002  4.869231146971782E-002 
 4.989501156302015E-002  5.112741834862642E-002  5.239026558183878E-002  5.368430514170983E-002 
 5.501030747870964E-002  5.636906207343399E-002  5.776137790664856E-002  5.918808394094279E-002 
 6.065002961428339E-002  6.214808534575574E-002  6.368314305379547E-002  6.525611668722520E-002 
 6.686794276939885E-002  6.851958095580490E-002  7.021201460541175E-002  7.194625136616493E-002 
 7.372332377490953E-002  7.554428987215031E-002  7.741023383199330E-002  7.932226660764229E-002 
 8.128152659285061E-002  8.328918029969626E-002  8.534642305309774E-002  8.745447970251016E-002 
 8.961460535116204E-002  9.182808610333361E-002  9.409623983008630E-002  9.642041695388989E-002 
 9.880200125265243E-002  1.012424106835921E-001  1.037430982274760E-001  1.063055527536960E-001 
 1.089312999067114E-001  1.116219030144064E-001  1.143789640188641E-001  1.172041244301300E-001 
 1.200990663035531E-001  1.230655132412511E-001  1.261052314183104E-001  1.292200306343409E-001 
 1.324117653910091E-001  1.356823359961673E-001  1.390336896952737E-001  1.424678218307459E-001 
 1.459867770299669E-001  1.495926504226051E-001  1.532875888880441E-001  1.570737923335803E-001 
 1.609535150042189E-001  1.649290668248233E-001  1.690028147753959E-001  1.731771843003491E-001 
 1.774546607525666E-001  1.818377908731561E-001  1.863291843077223E-001  1.909315151601218E-001 
 1.956475235845781E-001  2.004800174171164E-001  2.054318738473195E-001  2.105060411313487E-001 
 2.157055403472932E-001  2.210334671938720E-001  2.264929938335593E-001  2.320873707812480E-001 
 2.378199288395464E-001  2.436940810818815E-001  2.497133248845969E-001  2.558812440092469E-001 
 2.622015107362784E-001  2.686778880514707E-001  2.753142318863357E-001  2.821144934139276E-001 
 2.890827214012600E-001  2.962230646198689E-001  3.035397743159836E-001  3.110372067415763E-001 
 3.187198257480937E-001  3.265922054440689E-001  3.346590329185389E-001  3.429251110316353E-001 
 3.513953612741290E-001  3.600748266975883E-001  3.689686749170291E-001  3.780822011874717E-001 
 3.874208315567972E-001  3.969901260962432E-001  4.067957822108348E-001  4.168436380314312E-001 
 4.271396758908083E-001  4.376900258853088E-001  4.485009695246757E-001  4.595789434719450E-001 
 4.709305433756913E-001  4.825625277970682E-001  4.944818222336663E-001  5.066955232428506E-001 
 5.192109026669421E-001  5.320354119628073E-001  5.451766866382940E-001  5.586425507982477E-001 
 5.724410218029865E-001  5.865803150415050E-001  6.010688488230413E-001  6.159152493889605E-001 
 6.311283560488812E-001  6.467172264432685E-001  6.626911419364185E-001  6.790596131422520E-001 
 6.958323855868694E-001  7.130194455108680E-001  7.306310258149848E-001  7.486776121526015E-001 
 7.671699491727728E-001  7.861190469173404E-001  8.055361873762054E-001  8.254329312043993E-001 
 8.458211246051441E-001  8.667129063828843E-001  8.881207151705580E-001  9.100572968352544E-001 
 9.325357120670920E-001  9.555693441551453E-001  9.791719069557878E-001  1.003357453057604E+000 
 1.028140382148107E+000  1.053535449587180E+000  1.079557775191985E+000  1.106222852239225E+000 
 1.133546556689526E+000  1.161545156639757E+000  1.190235322008756E+000  1.219634134462381E+000 
 1.249759097583596E+000  1.280628147293912E+000  1.312259662532067E+000  1.344672476196621E+000 
 1.377885886358677E+000  1.411919667751720E+000  1.446794083545191E+000  1.482529897408770E+000 
 1.519148385874773E+000  1.556671351005868E+000  1.595121133375712E+000  1.634520625370092E+000 
 1.674893284816745E+000  1.716263148951711E+000  1.758654848730815E+000  1.802093623494465E+000 
 1.846605335994785E+000  1.892216487793846E+000  1.938954235042367E+000
    </PP_RAB>
  </PP_MESH>
  <PP_LOCAL type="real" size="515" columns="4">
-3.567292853839400E+000 -3.567292906681200E+000 -3.567292958227000E+000 -3.567293008506800E+000 
-3.567293057550400E+000 -3.567293105385800E+000 -3.567293152041400E+000 -3.567293197543800E+000 
-3.567293241919600E+000 -3.567293285194600E+000 -3.567293327393600E+000 -3.567293368540800E+000 
-3.567293408660000E+000 -3.567293447774000E+000 -3.567293485905400E+000 -3.567293523075600E+000 
-3.567293559305800E+000 -3.567293594616400E+000 -3.567293629027400E+000 -3.567293662558000E+000 
-3.567293695226800E+000 -3.567293727051800E+000 -3.567293758050800E+000 -3.567293788240400E+000 
-3.567293817637400E+000 -3.567293846257400E+000 -3.567293874115600E+000 -3.567293901227200E+000 
-3.567293927606000E+000 -3.567293953265800E+000 -3.567293978220000E+000 -3.567294002480800E+000 
-3.567294026060800E+000 -3.567294048971400E+000 -3.567294071223600E+000 -3.567294092828000E+000 
-3.567294113794600E+000 -3.567294134133000E+000 -3.567294153852200E+000 -3.567294172960600E+000 
-3.567294191466200E+000 -3.567294209376200E+000 -3.567294226697600E+000 -3.567294243436800E+000 
-3.567294259599600E+000 -3.567294275191000E+000 -3.567294290216000E+000 -3.567294304678200E+000 
-3.567294318581600E+000 -3.567294331928800E+000 -3.567294344722200E+000 -3.567294356963600E+000 
-3.567294368654000E+000 -3.567294379793800E+000 -3.567294390382800E+000 -3.567294400420200E+000 
-3.567294409904200E+000 -3.567294418832600E+000 -3.567294427202400E+000 -3.567294435009800E+000 
-3.567294442250200E+000 -3.567294448918000E+000 -3.567294455007400E+000 -3.567294460511000E+000 
-3.567294465421000E+000 -3.567294469728400E+000 -3.567294473423200E+000 -3.567294476494800E+000 
-3.567294478931000E+000 -3.567294480719000E+000 -3.567294481844600E+000 -3.567294482292800E+000 
-3.567294482046600E+000 -3.567294481088400E+000 -3.567294479399200E+000 -3.567294476958200E+000 
-3.567294473743800E+000 -3.567294469732200E+000 -3.567294464898400E+000 -3.567294459215600E+000 
-3.567294452655200E+000 -3.567294445187000E+000 -3.567294436778600E+000 -3.567294427395800E+000 
-3.567294417002200E+000 -3.567294405559000E+000 -3.567294393025400E+000 -3.567294379357800E+000 
-3.567294364510200E+000 -3.567294348434000E+000 -3.567294331077600E+000 -3.567294312386400E+000 
-3.567294292302600E+000 -3.567294270765000E+000 -3.567294247709000E+000 -3.567294223066600E+000 
-3.567294196765000E+000 -3.567294168728400E+000 -3.567294138875600E+000 -3.567294107121600E+000 
-3.567294073376200E+000 -3.567294037543800E+000 -3.567293999524000E+000 -3.567293959210000E+000 
-3.567293916489600E+000 -3.567293871243600E+000 -3.567293823346200E+000 -3.567293772664600E+000 