<UPF version="2.0.1">
  <PP_INFO>
    Generated using FHI98PP, converted with fhi2upf.x v.5.0.1
    Author: Abinit web site
    Generation date: 10-Jul-2012, PG
    Pseudopotential type: SL
    Element: Tl
    Functional: SLA-PW

    Suggested minimum cutoff for wavefunctions:   0. Ry
    Suggested minimum cutoff for charge density:   0. Ry
    The Pseudo was generated with a Non-Relativistic Calculation
    L component and cutoff radius for Local Potential:  0   0.0000

    Valence configuration: 
    nl pn  l   occ       Rcut    Rcut US       E pseu
    6s  6  0  2.00      0.000      0.000     0.000000
    6p  6  1  1.00      0.000      0.000     0.000000
    6d  6  2  0.00      0.000      0.000     0.000000
    5f  5  3  0.00      0.000      0.000     0.000000

    Generation configuration: not available.
    Comment:
    thallium, fhi98PP : Trouiller-Martins-type, LDA Ceperley/Alder Perdew/Wang (1992
  </PP_INFO>
  <!--                               -->
  <!-- END OF HUMAN READABLE SECTION -->
  <!--                               -->
  <PP_HEADER generated="Generated using FHI98PP, converted with fhi2upf.x v.5.0.1"
             author="Abinit web site"
             date="10-Jul-2012, PG"
             comment="thallium, fhi98PP : Trouiller-Martins-type, LDA Ceperley/Alder Perdew/Wang (1992"
             element="Tl"
             pseudo_type="SL"
             relativistic="no"
             is_ultrasoft="F"
             is_paw="F"
             is_coulomb="F"
             has_so="F"
             has_wfc="F"
             has_gipaw="F"
             paw_as_gipaw="F"
             core_correction="T"
             functional="SLA-PW"
             z_valence="3.000000000000000E+000"
             total_psenergy="0.000000000000000E+000"
             wfc_cutoff="0.000000000000000E+000"
             rho_cutoff="0.000000000000000E+000"
             l_max="3"
             l_max_rho="0"
             l_local="0"
             mesh_size="567"
             number_of_wfc="4"
             number_of_proj="3"/>
  <PP_MESH dx="2.439988682353512E-002" mesh="567" xmin="-5.075173815233833E+000" rmax="7.676224918347700E+001"
zmesh="8.100000000000000E+001">
    <PP_R type="real" size="567" columns="4">
 7.716049382716000E-005  7.906635802469099E-005  8.101929706790100E-005  8.302047370547800E-005 
 8.507107940600400E-005  8.717233506733201E-005  8.932549174349499E-005  9.153183138955901E-005 
 9.379266762488200E-005  9.610934651521600E-005  9.848324737414200E-005  1.009157835842800E-004 
 1.034084034388200E-004  1.059625910037500E-004  1.085798670015500E-004  1.112617897164800E-004 
 1.140099559224800E-004  1.168260018337700E-004  1.197116040790600E-004  1.226684806998100E-004 
 1.256983921731000E-004  1.288031424597700E-004  1.319845800785300E-004  1.352445992064700E-004 
 1.385851408068700E-004  1.420081937848000E-004  1.455157961712900E-004  1.491100363367200E-004 
 1.527930542342300E-004  1.565670426738200E-004  1.604342486278600E-004  1.643969745689700E-004 
 1.684575798408200E-004  1.726184820628900E-004  1.768821585698400E-004  1.812511478865200E-004 
 1.857280512393200E-004  1.903155341049300E-004  1.950163277973200E-004  1.998332310939100E-004 
 2.047691119019300E-004  2.098269089659100E-004  2.150096336173700E-004  2.203203715677200E-004 
 2.257622847454400E-004  2.313386131786500E-004  2.370526769241700E-004  2.429078780441900E-004 
 2.489077026318800E-004  2.550557228868900E-004  2.613555992422000E-004  2.678110825434800E-004 
 2.744260162823000E-004  2.812043388844800E-004  2.881500860549200E-004  2.952673931804800E-004 
 3.025604977920400E-004  3.100337420875000E-004  3.176915755170600E-004  3.255385574323300E-004 
 3.335793598009100E-004  3.418187699880000E-004  3.502616936067000E-004  3.589131574387800E-004 
 3.677783124275200E-004  3.768624367444800E-004  3.861709389320700E-004  3.957093611236900E-004 
 4.054833823434500E-004  4.154988218873300E-004  4.257616427879500E-004  4.362779553648100E-004 
 4.470540208623200E-004  4.580962551776200E-004  4.694112326805100E-004  4.810056901277200E-004 
 4.928865306738700E-004  5.050608279815200E-004  5.175358304326600E-004  5.303189654443500E-004 
 5.434178438908200E-004  5.568402646349199E-004  5.705942191714100E-004  5.846878963849400E-004 
 5.991296874256500E-004  6.139281907050599E-004  6.290922170154800E-004  6.446307947757599E-004 
 6.605531754067200E-004  6.768688388392700E-004  6.935874991586000E-004  7.107191103878100E-004 
 7.282738724143900E-004  7.462622370630300E-004  7.646949143184800E-004  7.835828787021500E-004 
 8.029373758060900E-004  8.227699289884999E-004  8.430923462345200E-004  8.639167271865100E-004 
 8.852554703480200E-004  9.071212804656200E-004  9.295271760931200E-004  9.524864973426200E-004 
 9.760129138269800E-004  1.000120432798500E-003  1.024823407488600E-003  1.050136545653600E-003 
 1.076074918331200E-003  1.102653968814000E-003  1.129889521843700E-003  1.157797793033300E-003 
 1.186395398521200E-003  1.215699364864700E-003  1.245727139176800E-003  1.276496599514500E-003 
 1.308026065522500E-003  1.340334309340900E-003  1.373440566781600E-003  1.407364548781100E-003 
 1.442126453136000E-003  1.477746976528500E-003  1.514247326848700E-003  1.551649235821900E-003 
 1.589974971946700E-003  1.629247353753800E-003  1.669489763391500E-003  1.710726160547300E-003 
 1.752981096712800E-003  1.796279729801600E-003  1.840647839127700E-003  1.886111840754100E-003 
 1.932698803220800E-003  1.980436463660300E-003  2.029353244312700E-003  2.079478269447300E-003 
 2.130841382702600E-003  2.183473164855400E-003  2.237404952027300E-003  2.292668854342400E-003 
 2.349297775044600E-003  2.407325430088200E-003  2.466786368211400E-003  2.527715991506200E-003 
 2.590150576496400E-003  2.654127295735900E-003  2.719684239940600E-003  2.786860440667100E-003 
 2.855695893551600E-003  2.926231582122300E-003  2.998509502200700E-003  3.072572686905100E-003 
 3.148465232271600E-003  3.226232323508700E-003  3.305920261899400E-003  3.387576492368300E-003 
 3.471249631729800E-003  3.556989497633500E-003  3.644847138225100E-003  3.734874862539300E-003 
 3.827126271644000E-003  3.921656290553600E-003  4.018521200930300E-003  4.117778674593200E-003 
 4.219487807855700E-003  4.323709156709700E-003  4.430504772880400E-003  4.539938240770600E-003 
 4.652074715317600E-003  4.766980960786000E-003  4.884725390517400E-003  5.005378107663200E-003 
 5.129010946922400E-003  5.255697517311400E-003  5.385513245989000E-003  5.518535423164900E-003 
 5.654843248117100E-003  5.794517876345600E-003  5.937642467891400E-003  6.084302236848300E-003 
 6.234584502098400E-003  6.388578739300300E-003  6.546376634161000E-003  6.708072137024700E-003 
 6.873761518809300E-003  7.043543428323800E-003  7.217518951003400E-003  7.395791669093200E-003 
 7.578467723319800E-003  7.765655876085800E-003  7.957467576225100E-003  8.154017025357899E-003 
 8.355421245884200E-003  8.561800150657601E-003  8.773276614378800E-003  8.989976546754000E-003 
 9.212028967458799E-003  9.439566082955000E-003  9.672723365204000E-003  9.911639632324601E-003 
 1.015645713124300E-002  1.040732162238500E-002  1.066438246645800E-002  1.092779271337900E-002 
 1.119770919340000E-002  1.147429261047700E-002  1.175770763795500E-002  1.204812301661300E-002 
 1.234571165512300E-002  1.265065073300500E-002  1.296312180611000E-002  1.328331091472100E-002 
 1.361140869431400E-002  1.394761048906400E-002  1.429211646814400E-002  1.464513174490700E-002 
 1.500686649900600E-002  1.537753610153200E-002  1.575736124323900E-002  1.614656806594700E-002 
 1.654538829717600E-002  1.695405938811700E-002  1.737282465500300E-002  1.780193342398200E-002 
 1.824164117955400E-002  1.869220971668900E-002  1.915390729669100E-002  1.962700880692000E-002 
 2.011179592445000E-002  2.060855728378400E-002  2.111758864869400E-002  2.163919308831700E-002 
 2.217368115759800E-002  2.272137108219100E-002  2.328258894792100E-002  2.385766889493400E-002 
 2.444695331663900E-002  2.505079306356000E-002  2.566954765223000E-002  2.630358547924000E-002 
 2.695328404057800E-002  2.761903015638000E-002  2.830122020124200E-002  2.900026034021300E-002 
 2.971656677061600E-002  3.045056596985100E-002  3.120269494930600E-002  3.197340151455400E-002 
 3.276314453196300E-002  3.357239420190300E-002  3.440163233869000E-002  3.525135265745500E-002 
 3.612206106809400E-002  3.701427597647600E-002  3.792852859309500E-002  3.886536324934500E-002 
 3.982533772160400E-002  4.080902356332700E-002  4.181700644534100E-002  4.284988650454100E-002 
 4.390827870120300E-002  4.499281318512300E-002  4.610413567079600E-002  4.724290782186400E-002 
 4.840980764506400E-002  4.960552989389800E-002  5.083078648227700E-002  5.208630690838900E-002 
 5.337283868902600E-002  5.469114780464500E-002  5.604201915542000E-002  5.742625702855900E-002 
 5.884468557716400E-002  6.029814931092000E-002  6.178751359890000E-002  6.331366518479301E-002 
 6.487751271485701E-002  6.647998727891399E-002  6.812204296470301E-002  6.980465742593100E-002 
 7.152883246435200E-002  7.329559462622100E-002  7.510599581348899E-002  7.696111391008199E-002 
 7.886205342366100E-002  8.080994614322599E-002  8.280595181296301E-002  8.485125882274300E-002 
 8.694708491566500E-002  8.909467791308200E-002  9.129531645753500E-002  9.355031077403600E-002 
 9.586100345015500E-002  9.822877023537400E-002  1.006550208601900E-001  1.031411998754300E-001 
 1.056887875123600E-001  1.082993005639100E-001  1.109742932878400E-001  1.137153583320500E-001 
 1.165241276828500E-001  1.194022736366200E-001  1.223515097954400E-001  1.253735920873900E-001 
 1.284703198119500E-001  1.316435367113000E-001  1.348951320680700E-001  1.382270418301600E-001 
 1.416412497633600E-001  1.451397886325200E-001  1.487247414117400E-001  1.523982425246100E-001 
 1.561624791149700E-001  1.600196923491100E-001  1.639721787501300E-001  1.680222915652600E-001 
 1.721724421669200E-001  1.764251014884400E-001  1.807828014952100E-001  1.852481366921400E-001 
 1.898237656684300E-001  1.945124126804400E-001  1.993168692736500E-001  2.042399959447100E-001 
 2.092847238445400E-001  2.144540565235000E-001  2.197510717196300E-001  2.251789231911100E-001 
 2.307408425939300E-001  2.364401414060000E-001  2.422802128987300E-001  2.482645341573300E-001 
 2.543966681510100E-001  2.606802658543400E-001  2.671190684209500E-001  2.737169094109400E-001 
 2.804777170733900E-001  2.874055166851100E-001  2.945044329472300E-001  3.017786924410200E-001 
 3.092326261443200E-001  3.168706720100800E-001  3.246973776087300E-001  3.327174028356700E-001 
 3.409355226857100E-001  3.493566300960400E-001  3.579857388594200E-001  3.668279866092400E-001 
 3.758886378784900E-001  3.851730872340900E-001  3.946868624887700E-001  4.044356279922500E-001 
 4.144251880036600E-001  4.246614901473500E-001  4.351506289539800E-001  4.458988494891500E-001 
 4.569125510715300E-001  4.681982910830000E-001  4.797627888727500E-001  4.916129297579000E-001 
 5.037557691229200E-001  5.161985366202601E-001  5.289486404747800E-001  5.420136718945100E-001 
 5.554014095903000E-001  5.691198244071800E-001  5.831770840700400E-001  5.975815580465700E-001 
 6.123418225303200E-001  6.274666655468200E-001  6.429650921858300E-001  6.588463299628100E-001 
 6.751198343129000E-001  6.917952942204200E-001  7.088826379876700E-001  7.263920391459600E-001 
 7.443339225128700E-001  7.627189703989400E-001  7.815581289677900E-001  8.008626147533000E-001 
 8.206439213377000E-001  8.409138261947400E-001  8.616843977017500E-001  8.829680023249900E-001 
 9.047773119824100E-001  9.271253115883800E-001  9.500253067846099E-001  9.734909318621900E-001 
 9.975361578791900E-001  1.022175300978800E+000  1.047423030913000E+000  1.073294379776500E+000 
 1.099804750957000E+000  1.126969928305600E+000  1.154806085534800E+000  1.183329795847500E+000 
 1.212558041804900E+000  1.242508225437500E+000  1.273198178605800E+000  1.304646173617400E+000 
 1.336870934105700E+000  1.369891646178200E+000  1.403727969838800E+000  1.438400050693800E+000 
 1.473928531945900E+000  1.510334566685000E+000  1.547639830482100E+000  1.585866534295000E+000 
 1.625037437692100E+000  1.665175862403100E+000  1.706305706204400E+000  1.748451457147700E+000 
 1.791638208139200E+000  1.835891671880300E+000  1.881238196175700E+000  1.927704779621300E+000 
 1.975319087677900E+000  2.024109469143500E+000  2.074104973031400E+000  2.125335365865300E+000 
 2.177831149402100E+000  2.231623578792400E+000  2.286744681188500E+000  2.343227274813900E+000 
 2.401104988501800E+000  2.460412281717800E+000  2.521184465076200E+000  2.583457721363600E+000 
 2.647269127081300E+000  2.712656674520200E+000  2.779659294380800E+000  2.848316878952100E+000 
 2.918670305862200E+000  2.990761462417000E+000  3.064633270538700E+000  3.140329712321000E+000 
 3.217895856215300E+000  3.297377883863800E+000  3.378823117595200E+000  3.462280048599800E+000 
 3.547798365800300E+000  3.635428985435500E+000  3.725224081375800E+000  3.817237116185800E+000 
 3.911522872955600E+000  4.008137487917600E+000  4.107138483869100E+000  4.208584804420700E+000 
 4.312536849089900E+000  4.419056509262400E+000  4.528207205041200E+000  4.640053923005700E+000 
 4.754663254903900E+000  4.872103437300100E+000  4.992444392201400E+000  5.115757768688800E+000 
 5.242116985575400E+000  5.371597275119100E+000  5.504275727814500E+000  5.640231338291500E+000 
 5.779545052347300E+000  5.922299815140300E+000  6.068580620574300E+000  6.218474561902500E+000 
 6.372070883581500E+000  6.529461034405900E+000  6.690738721955700E+000  6.855999968388000E+000 
 7.025343167607200E+000  7.198869143847100E+000  7.376681211700200E+000  7.558885237629100E+000 
 7.745589702998600E+000  7.936905768662700E+000  8.132947341148601E+000  8.333831140475001E+000 
 8.539676769644700E+000  8.750606785854901E+000  8.966746773465600E+000  9.188225418770200E+000 
 9.415174586613800E+000  9.647729398903101E+000  9.886028315056100E+000  1.013021321443800E+001 
 1.038042948083500E+001  1.063682608901100E+001  1.089955569341000E+001  1.116877471903700E+001 
 1.144464345459700E+001  1.172732614792600E+001  1.201699110377900E+001  1.231381078404300E+001 
 1.261796191040900E+001  1.292962556959600E+001  1.324898732116500E+001  1.357623730799800E+001 
 1.391157036950500E+001  1.425518615763200E+001  1.460728925572500E+001  1.496808930034200E+001 
 1.533780110606000E+001  1.571664479338000E+001  1.610484591977600E+001  1.650263561399500E+001 
 1.691025071366100E+001  1.732793390628800E+001  1.775593387377300E+001  1.819450544045600E+001 
 1.864390972483500E+001  1.910441429503800E+001  1.957629332812600E+001  2.005982777333000E+001 
 2.055530551933200E+001  2.106302156565900E+001  2.158327819833100E+001  2.211638516983000E+001 
 2.266265988352400E+001  2.322242758264700E+001  2.379602154393900E+001  2.438378327607400E+001 
 2.498606272299300E+001  2.560321847225100E+001  2.623561796851600E+001  2.688363773233800E+001 
 2.754766358432700E+001  2.822809087486000E+001  2.892532471946900E+001  2.963978024004000E+001 
 3.037188281196900E+001  3.112206831742400E+001  3.189078340486500E+001  3.267848575496500E+001 
 3.348564435311200E+001  3.431273976863400E+001  3.516026444091900E+001  3.602872297261000E+001 
 3.691863243003400E+001  3.783052265105500E+001  3.876493656053600E+001  3.972243049358200E+001 
 4.070357452677300E+001  4.170895281758500E+001  4.273916395217900E+001  4.379482130179800E+001 
 4.487655338795200E+001  4.598500425663400E+001  4.712083386177300E+001  4.828471845815900E+001 
 4.947735100407600E+001  5.069944157387600E+001  5.195171778075100E+001  5.323492520993600E+001 
 5.454982786262100E+001  5.589720861082800E+001  5.727786966351500E+001  5.869263304420400E+001 
 6.014234108039600E+001  6.162785690508200E+001  6.315006497063700E+001  6.470987157541200E+001 
 6.630820540332500E+001  6.794601807678700E+001  6.962428472328300E+001  7.134400455594800E+001 
 7.310620146847999E+001  7.491192464475201E+001  7.676224918347700E+001
    </PP_R>
    <PP_RAB type="real" size="567" columns="4">
 1.882707316630784E-006  1.929210187351568E-006  1.976861678979155E-006  2.025690162449937E-006 
 2.075724709462467E-006  2.126995109786183E-006  2.179531888997899E-006  2.233366326656139E-006 
 2.288530474924567E-006  2.345057177655190E-006  2.402980089943277E-006  2.462333698164796E-006 
 2.523153340509668E-006  2.585475228020041E-006  2.649336466152316E-006  2.714775076866076E-006 
 2.781830021264740E-006  2.850541222790094E-006  2.920949590992909E-006  2.993097045890366E-006 
 3.067026542923973E-006  3.142782098534059E-006  3.220408816367940E-006  3.299952914132236E-006 
 3.381461751111307E-006  3.464983856363764E-006  3.550568957616082E-006  3.638268010869178E-006 
 3.728133230737476E-006  3.820218121536801E-006  3.914577509138678E-006  4.011267573614450E-006 
 4.110345882682640E-006  4.211871425984943E-006  4.315904650206689E-006  4.422507495066915E-006 
 4.531743430195140E-006  4.643677492920931E-006  4.758376326996034E-006  4.875908222272743E-006 
 4.996343155362890E-006  5.119752831300411E-006  5.246210726233580E-006  5.375792131171573E-006 
 5.508574196811446E-006  5.644635979472631E-006  5.784058488165783E-006  5.926924732823308E-006 
 6.073319773724008E-006  6.223330772135053E-006  6.377047042206881E-006  6.534560104149334E-006 
 6.695963738721726E-006  6.861354043068329E-006  7.030829487931954E-006  7.204490976283958E-006 
 7.382441903398224E-006  7.564788218412077E-006  7.751638487406825E-006  7.943103958045739E-006 
 8.139298625809505E-006  8.340339301867183E-006  8.546345682623215E-006  8.757440420983874E-006 
 8.973749199382227E-006  9.195400804606975E-006  9.422527204480800E-006  9.655263626431425E-006 
 9.893748638004401E-006  1.013812422936303E-005  1.038853589782837E-005  1.064513273450467E-005 
 1.090806751304692E-005  1.117749678061919E-005  1.145358095110055E-005  1.173648440059277E-005 
 1.202637556528730E-005  1.232342704175003E-005  1.262781568968117E-005  1.293972273721637E-005 
 1.325933388882548E-005  1.358683943587939E-005  1.392243436994580E-005  1.426631849888336E-005 
 1.461869656580583E-005  1.497977837098115E-005  1.534977889674451E-005  1.572891843549404E-005 
 1.611742272085071E-005  1.651552306205582E-005  1.692345648168860E-005  1.734146585678613E-005 
 1.776980006344877E-005  1.820871412501607E-005  1.865846936390380E-005  1.911933355719231E-005 
 1.959158109605488E-005  2.007549314912743E-005  2.057135782991098E-005  2.107947036830971E-005 
 2.160013328640704E-005  2.213365657858139E-005  2.268035789607233E-005  2.324056273610531E-005 
 2.381460463568705E-005  2.440282537018836E-005  2.500557515683146E-005  2.562321286320596E-005 
 2.625610622092608E-005  2.690463204458343E-005  2.756917645608450E-005  2.825013511455126E-005 
 2.894791345188013E-005  2.966292691414221E-005  3.039560120892010E-005  3.114637255878123E-005 
 3.191568796098294E-005  3.270400545361907E-005  3.351179438832297E-005  3.433953570971441E-005 
 3.518772224174453E-005  3.605685898111661E-005  3.694746339794888E-005  3.786006574387912E-005 
 3.879520936775291E-005  3.975345103913681E-005  4.073536127980303E-005  4.174152470341489E-005 
 4.277254036358879E-005  4.382902211056929E-005  4.491159895670036E-005  4.602091545092954E-005 
 4.715763206256930E-005  4.832242557451345E-005  4.951598948620370E-005  5.073903442651479E-005 
 5.199228857684853E-005  5.327649810469781E-005  5.459242760788315E-005  5.594086056979849E-005 
 5.732259982587111E-005  5.873846804157009E-005  6.018930820219739E-005  6.167598411479115E-005 
 6.319938092242640E-005  6.476040563121129E-005  6.635998765030278E-005  6.799907934526446E-005 
 6.967865660509304E-005  7.139971942323824E-005  7.316329249299172E-005  7.497042581756965E-005 
 7.682219533526225E-005  7.871970356004303E-005  8.066408023797695E-005  8.265648301985461E-005 
 8.469809815044510E-005  8.679014117476044E-005  8.893385766177831E-005  9.113052394602521E-005 
 9.338144788749153E-005  9.568796965031242E-005  9.805146250067575E-005  1.004733336244405E-004 
 1.029550249649654E-004  1.054980140815992E-004  1.081038150294139E-004  1.107739792606418E-004 
 1.135100965483788E-004  1.163137959331251E-004  1.191867466926730E-004  1.221306593359825E-004 
 1.251472866215793E-004  1.282384246011327E-004  1.314059136887809E-004  1.346516397568931E-004 
 1.379775352588890E-004  1.413855803797837E-004  1.448778042151659E-004  1.484562859792801E-004 
 1.521231562429670E-004  1.558805982021700E-004  1.597308489777632E-004  1.636762009475121E-004 
 1.677190031109178E-004  1.718616624877553E-004  1.761066455512029E-004  1.804564796963180E-004 
 1.849137547448170E-004  1.894811244870140E-004  1.941613082618428E-004  1.989570925759113E-004 
 2.038713327625353E-004  2.089069546817714E-004  2.140669564624101E-004  2.193544102870327E-004 
 2.247724642211218E-004  2.303243440873828E-004  2.360133553863414E-004  2.418428852643855E-004 
 2.478164045304154E-004  2.539374697223239E-004  2.602097252244676E-004  2.666369054374994E-004 
 2.732228370018187E-004  2.799714410757641E-004  2.868867356703165E-004  2.939728380413858E-004 
 3.012339671409996E-004  3.086744461293936E-004  3.162987049487841E-004  3.241112829610212E-004 
 3.321168316501436E-004  3.403201173919129E-004  3.487260242914961E-004  3.573395570914922E-004 
 3.661658441516471E-004  3.752101405022063E-004  3.844778309725903E-004  3.939744333976132E-004 
 4.037056019025369E-004  4.136771302695479E-004  4.238949553871937E-004  4.343651607852679E-004 
 4.450939802566553E-004  4.560878015689951E-004  4.673531702677439E-004  4.788967935733751E-004 
 4.907255443746150E-004  5.028464653206700E-004  5.152667730141036E-004  5.279938623075583E-004 
 5.410353107065444E-004  5.543988828810042E-004  5.680925352881620E-004  5.821244209097638E-004 
 5.965028941062382E-004  6.112365155906626E-004  6.263340575257537E-004  6.418045087466378E-004 
 6.576570801126987E-004  6.739012099914755E-004  6.905465698782507E-004  7.076030701542513E-004 
 7.250808659870550E-004  7.429903633769544E-004  7.613422253523574E-004  7.801473783185641E-004 
 7.994170185630208E-004  8.191626189215399E-004  8.393959356089018E-004  8.601290152184261E-004 
 8.813742018943178E-004  9.031441446811093E-004  9.254518050547338E-004  9.483104646395993E-004 
 9.717337331162017E-004  9.957355563241569E-004  1.020330224565359E-003  1.045532381112125E-003 
 1.071357030925591E-003  1.097819549589460E-003  1.124935692464331E-003  1.152721604068184E-003 
 1.181193827688667E-003  1.210369315232599E-003  1.240265437318838E-003  1.270899993620607E-003 
 1.302291223463031E-003  1.334457816682569E-003  1.367418924754635E-003  1.401194172196078E-003 
 1.435803668249311E-003  1.471268018855070E-003  1.507608338920797E-003  1.544846264892145E-003 
 1.583003967634972E-003  1.622104165635556E-003  1.662170138526750E-003  1.703225740948357E-003 
 1.745295416749794E-003  1.788404213543501E-003  1.832577797618034E-003  1.877842469219195E-003 
 1.924225178208909E-003  1.971753540110683E-003  2.020455852551400E-003  2.070361112109415E-003 
 2.121499031578523E-003  2.173900057658515E-003  2.227595389082677E-003  2.282616995193017E-003 
 2.338997634974292E-003  2.396770876558161E-003  2.455971117209203E-003  2.516633603804106E-003 
 2.578794453818236E-003  2.642490676827417E-003  2.707760196545089E-003  2.774641873399761E-003 
 2.843175527672696E-003  2.913401963206299E-003  2.985362991697385E-003  3.059101457592374E-003 
 3.134661263594942E-003  3.212087396805611E-003  3.291425955506731E-003  3.372724176607959E-003 
 3.456030463770055E-003  3.541394416225298E-003  3.628866858305983E-003  3.718499869706141E-003 
 3.810346816487935E-003  3.904462382855193E-003  4.000902603711643E-003  4.099724898023364E-003 
 4.200988103004494E-003  4.304752509148634E-003  4.411079896124740E-003  4.520033569558980E-003 
 4.631678398726944E-003  4.746080855175494E-003  4.863309052298405E-003  4.983432785890196E-003 
 5.106523575701578E-003  5.232654708021403E-003  5.361901279309521E-003  5.494340240908592E-003 
 5.630050444859024E-003  5.769112690847040E-003  5.911609774311006E-003  6.057626535736521E-003 
 6.207249911169065E-003  6.360568983974943E-003  6.517675037879315E-003  6.678661611314751E-003 
 6.843624553114220E-003  7.012662079576319E-003  7.185874832941800E-003  7.363365941315302E-003 
 7.545241080065956E-003  7.731608534743470E-003  7.922579265551660E-003  8.118266973410891E-003 
 8.318788167654115E-003  8.524262235395000E-003  8.734811512609447E-003  8.950561356970713E-003 
 9.171640222487933E-003  9.398179735983416E-003  9.630314775462157E-003  9.868183550416253E-003 
 1.011192768411157E-002  1.036169229790911E-002  1.061762609766724E-002  1.087988146227978E-002 
 1.114861453439804E-002  1.142398531339775E-002  1.170615775063867E-002  1.199529984707928E-002 
 1.229158375330214E-002  1.259518587200880E-002  1.290628696304740E-002  1.322507225103474E-002 
 1.355173153563520E-002  1.388645930456537E-002  1.422945484938820E-002  1.458092238416809E-002 
 1.494107116705704E-002  1.531011562488337E-002  1.568827548081808E-002  1.607577588519404E-002 
 1.647284754955854E-002  1.687972688403243E-002  1.729665613806817E-002  1.772388354467832E-002 
 1.816166346823199E-002  1.861025655589737E-002  1.906992989282794E-002  1.954095716118093E-002 
 2.002361880306194E-002  2.051820218749754E-002  2.102500178152873E-002  2.154431932553265E-002 
 2.207646401287313E-002  2.262175267399121E-002  2.318050996503871E-002  2.375306856117518E-002 
 2.433976935463630E-002  2.494096165769567E-002  2.555700341064133E-002  2.618826139488292E-002 
 2.683511145133703E-002  2.749793870418413E-002  2.817713779017874E-002  2.887311309359592E-002 
 2.958627898700693E-002  3.031706007798646E-002  3.106589146191258E-002  3.183321898102271E-002 
 3.261949948985276E-002  3.342520112725430E-002  3.425080359509745E-002  3.509679844389590E-002 
 3.596368936545923E-002  3.685199249278696E-002  3.776223670735832E-002  3.869496395402988E-002 
 3.965072956369475E-002  4.063010258391813E-002  4.163366611773953E-002  4.266201767084894E-002 
 4.371576950731774E-002  4.479554901415000E-002  4.590199907479844E-002  4.703577845194743E-002 
 4.819756217970941E-002  4.938804196554716E-002  5.060792660209753E-002  5.185794238916993E-002 
 5.313883356618065E-002  5.445136275526698E-002  5.579631141532030E-002  5.717448030727978E-002 
 5.858668997086952E-002  6.003378121315013E-002  6.151661560911421E-002  6.303607601465977E-002 
 6.459306709222233E-002  6.618851584940003E-002  6.782337219087901E-002  6.949860948399603E-002 
 7.121522513825032E-002  7.297424119916518E-002  7.477670495678457E-002  7.662368956921700E-002 
 7.851629470157596E-002  8.045564718070446E-002  8.244290166606698E-002  8.447924133721881E-002 
 8.656587859825017E-002  8.870405579962531E-002  9.089504597787711E-002  9.314015361353110E-002 
 9.544071540778558E-002  9.779810107835782E-002  1.002137141749917E-001  1.026889929151148E-001 
 1.052254110401183E-001  1.078244786928087E-001  1.104877433165216E-001  1.132167905764392E-001 
 1.160132453036763E-001  1.188787724626789E-001  1.218150781425067E-001  1.248239105726273E-001 
 1.279070611637708E-001  1.310663655745157E-001  1.343037048042052E-001  1.376210063128686E-001 
 1.410202451687965E-001  1.445034452244663E-001  1.480726803215115E-001  1.517300755254531E-001 
 1.554778083909321E-001  1.593181102581865E-001  1.632532675815631E-001  1.672856232908276E-001 
 1.714175781861114E-001  1.756515923673084E-001  1.799901866987828E-001  1.844359443102404E-001 
 1.889915121347048E-001  1.936596024844329E-001  1.984429946657967E-001  2.033445366340426E-001 
 2.083671466889027E-001  2.135138152121180E-001  2.187876064478594E-001  2.241916603271215E-001 
 2.297291943372008E-001  2.354035054373282E-001  2.412179720216324E-001  2.471760559305671E-001 
 2.532813045120614E-001  2.595373527334942E-001  2.659479253460219E-001  2.725168391020631E-001 
 2.792480050278788E-001  2.861454307520785E-001  2.932132228916360E-001  3.004555894970755E-001 
 3.078768425576566E-001  3.154814005688282E-001  3.232737911628777E-001  3.312586538046063E-001 
 3.394407425535667E-001  3.478249288946453E-001  3.564162046383306E-001  3.652196848929118E-001 
 3.742406111097558E-001  3.834843542041745E-001  3.929564177530058E-001  4.026624412715180E-001 
 4.126082035709324E-001  4.227996261991240E-001  4.332427769662348E-001  4.439438735573204E-001 
 4.549092872341798E-001  4.661455466288537E-001  4.776593416306001E-001  4.894575273688585E-001 
 5.015471282948876E-001  5.139353423637592E-001  5.266295453201495E-001  5.396372950895626E-001 
 5.529663362782552E-001  5.666246047843271E-001  5.806202325225150E-001  5.949615522658140E-001 
 6.096571026067790E-001  6.247156330411682E-001  6.401461091772948E-001  6.559577180739655E-001 
 6.721598737103986E-001  6.887622225910486E-001  7.057746494890463E-001  7.232072833314287E-001 
 7.410705032297152E-001  7.593749446594736E-001  7.781315057925781E-001  7.973513539856507E-001 
 8.170459324290807E-001  8.372269669600824E-001  8.579064730439900E-001  8.790967629281838E-001 
 9.008104529725230E-001  9.230604711609238E-001  9.458600647985972E-001  9.692228083991412E-001 
 9.931626117665883E-001  1.017693728277240E+000  1.042830763365679E+000  1.068588683220816E+000 
 1.094982823696360E+000  1.122028899441650E+000  1.149743013257863E+000  1.178141665685337E+000 
 1.207241764827776E+000  1.237060636419006E+000  1.267616034138562E+000  1.298926150181795E+000 
 1.331009626091275E+000  1.363885563855736E+000  1.397573537282962E+000  1.432093603653855E+000 
 1.467466315664109E+000  1.503712733661018E+000  1.540854438182433E+000  1.578913542805545E+000 
 1.617912707312850E+000  1.657875151183474E+000  1.698824667417690E+000  1.740785636702905E+000 
 1.783783041929469E+000  1.827842483065140E+000  1.872990192396840E+000
    </PP_RAB>
  </PP_MESH>
  <PP_NLCC type="real" size="567" columns="4">
 3.887747146346151E+000  3.887747146345832E+000  3.887747146345435E+000  3.887747146345037E+000 