<UPF version="2.0.1">
  <PP_INFO>
    Generated using FHI98PP, converted with fhi2upf.x v.5.0.1
    Author: Abinit web site
    Generation date: 10-Jul-2012, PG
    Pseudopotential type: SL
    Element: Tm
    Functional: SLA-PW

    Suggested minimum cutoff for wavefunctions:   0. Ry
    Suggested minimum cutoff for charge density:   0. Ry
    The Pseudo was generated with a Non-Relativistic Calculation
    L component and cutoff radius for Local Potential:  0   0.0000

    Valence configuration: 
    nl pn  l   occ       Rcut    Rcut US       E pseu
    6s  6  0  2.00      0.000      0.000     0.000000
    6p  6  1  0.00      0.000      0.000     0.000000
    5d  5  2  0.00      0.000      0.000     0.000000
    4f  4  3 13.00      0.000      0.000     0.000000

    Generation configuration: not available.
    Comment:
    thulium, fhi98PP : Trouiller-Martins-type, LDA Ceperley/Alder Perdew/Wang (1992)
  </PP_INFO>
  <!--                               -->
  <!-- END OF HUMAN READABLE SECTION -->
  <!--                               -->
  <PP_HEADER generated="Generated using FHI98PP, converted with fhi2upf.x v.5.0.1"
             author="Abinit web site"
             date="10-Jul-2012, PG"
             comment="thulium, fhi98PP : Trouiller-Martins-type, LDA Ceperley/Alder Perdew/Wang (1992)"
             element="Tm"
             pseudo_type="SL"
             relativistic="no"
             is_ultrasoft="F"
             is_paw="F"
             is_coulomb="F"
             has_so="F"
             has_wfc="F"
             has_gipaw="F"
             paw_as_gipaw="F"
             core_correction="F"
             functional="SLA-PW"
             z_valence="1.500000000000000E+001"
             total_psenergy="0.000000000000000E+000"
             wfc_cutoff="0.000000000000000E+000"
             rho_cutoff="0.000000000000000E+000"
             l_max="3"
             l_max_rho="0"
             l_local="0"
             mesh_size="561"
             number_of_wfc="4"
             number_of_proj="3"/>
  <PP_MESH dx="2.439988682353512E-002" mesh="561" xmin="-5.075173815233822E+000" rmax="7.784006721259900E+001"
zmesh="6.900000000000000E+001">
    <PP_R type="real" size="561" columns="4">
 9.057971014492800E-005  9.281702898550700E-005  9.510960960144900E-005  9.745881695860500E-005 
 9.986604973748299E-005  1.023327411660000E-004  1.048603598728000E-004  1.074504107616600E-004 
 1.101044359074700E-004  1.128240154743800E-004  1.156107686566000E-004  1.184663546424200E-004 
 1.213924736020900E-004  1.243908677000600E-004  1.274633221322500E-004  1.306116661889200E-004 
 1.338377743437800E-004  1.371435673700700E-004  1.405310134841200E-004  1.440021295171700E-004 
 1.475589821162500E-004  1.512036889745200E-004  1.549384200921900E-004  1.587653990684700E-004 
 1.626869044254600E-004  1.667052709647700E-004  1.708228911576000E-004  1.750422165691900E-004 
 1.793657593184500E-004  1.837960935736100E-004  1.883358570848800E-004  1.929877527548800E-004 
 1.977545502479200E-004  2.026390876390500E-004  2.076442731037300E-004  2.127730866493900E-004 
 2.180285818896300E-004  2.234138878623100E-004  2.289322108925100E-004  2.345868365015500E-004 
 2.403811313631400E-004  2.463185453078100E-004  2.524026133769100E-004  2.586369579273200E-004 
 2.650252907881300E-004  2.715714154705900E-004  2.782792294327200E-004  2.851527263997000E-004 
 2.921959987417800E-004  2.994132399107000E-004  3.068087469364900E-004  3.143869229858200E-004 
 3.221522799835700E-004  3.301094412991700E-004  3.382631444992600E-004  3.466182441683900E-004 
 3.551797147993500E-004  3.639526537548900E-004  3.729422843026400E-004  3.821539587249100E-004 
 3.915931615054200E-004  4.012655125946000E-004  4.111767707556900E-004  4.213328369933600E-004 
 4.317397580670900E-004  4.424037300913500E-004  4.533311022246000E-004  4.645283804495500E-004 
 4.760022314466600E-004  4.877594865633900E-004  4.998071458815000E-004  5.121523823847800E-004 
 5.248025462296800E-004  5.377651691215500E-004  5.510479687988600E-004  5.646588536281901E-004 
 5.786059273128100E-004  5.928974937174300E-004  6.075420618122500E-004  6.225483507390100E-004 
 6.379252950022700E-004  6.536820497888200E-004  6.698279964186100E-004  6.863727479301500E-004 
 7.033261548040200E-004  7.206983108276800E-004  7.384995591051300E-004  7.567404982150200E-004 
 7.754319885209300E-004  7.945851586374000E-004  8.142114120557400E-004  8.343224339335199E-004 
 8.549301980516800E-004  8.760469739435499E-004  8.976853341999600E-004  9.198581619547000E-004 
 9.425786585549800E-004  9.658603514212900E-004  9.897171021013900E-004  1.014163114523300E-003 
 1.039212943452000E-003  1.064881503155300E-003  1.091184076283200E-003  1.118136322967400E-003 
 1.145754290144700E-003  1.174054421111300E-003  1.203053565312700E-003  1.232768988376000E-003 
 1.263218382388800E-003  1.294419876433900E-003  1.326392047381800E-003  1.359153930952100E-003 
 1.392725033046600E-003  1.427125341362900E-003  1.462375337294500E-003  1.498496008125700E-003 
 1.535508859526400E-003  1.573435928356700E-003  1.612299795787100E-003  1.652123600743100E-003 
 1.692931053681400E-003  1.734746450707300E-003  1.777594688039800E-003  1.821501276834400E-003 
 1.866492358372200E-003  1.912594719624000E-003  1.959835809198700E-003  2.008243753685900E-003 
 2.057847374402000E-003  2.108676204549700E-003  2.160760506802100E-003  2.214131291320100E-003 
 2.268820334215700E-003  2.324860196470800E-003  2.382284243323700E-003  2.441126664133700E-003 
 2.501422492737800E-003  2.563207628308500E-003  2.626518856727700E-003  2.691393872488900E-003 
 2.757871301139300E-003  2.825990722277500E-003  2.895792693117700E-003  2.967318772637700E-003 
 3.040611546321900E-003  3.115714651516000E-003  3.192672803408500E-003  3.271531821652700E-003 
 3.352338657647500E-003  3.435141422491400E-003  3.519989415626900E-003  3.606933154192900E-003 
 3.696024403101500E-003  3.787316205858100E-003  3.880862916142800E-003  3.976720230171500E-003 
 4.074945219856800E-003  4.175596366787200E-003  4.278733597046900E-003  4.384418316893900E-003 
 4.492713449321200E-003  4.603683471519400E-003  4.717394453266000E-003  4.833914096261600E-003 
 4.953311774439300E-003  5.075658575267900E-003  5.201027342077100E-003  5.329492717426400E-003 
 5.461131187546800E-003  5.596021127879200E-003  5.734242849737800E-003  5.875878648126300E-003 
 6.021012850735100E-003  6.169731868148200E-003  6.322124245291500E-003  6.478280714150200E-003 
 6.638294247789700E-003  6.802260115710100E-003  6.970275940568100E-003  7.142441756300200E-003 
 7.318860067680800E-003  7.499635911352500E-003  7.684876918362900E-003  7.874693378246400E-003 
 8.069198304689100E-003  8.268507502814999E-003  8.472739638134500E-003  8.682016307196399E-003 
 8.896462109984200E-003  9.116204724100799E-003  9.341374980786099E-003  9.572106942811499E-003 
 9.808537984298900E-003  1.005080887251100E-002  1.029906385166200E-002  1.055345072879800E-002 
 1.081412096179900E-002  1.108122974955600E-002  1.135493612437000E-002  1.163540304664200E-002 
 1.192279750189400E-002  1.221729060019100E-002  1.251905767801500E-002  1.282827840266200E-002 
 1.314513687920800E-002  1.346982176012500E-002  1.380252635760000E-002  1.414344875863200E-002 
 1.449279194297100E-002  1.485076390396200E-002  1.521757777239000E-002  1.559345194336800E-002 
 1.597861020636900E-002  1.637328187846600E-002  1.677770194086500E-002  1.719211117880400E-002 
 1.761675632492000E-002  1.805189020614600E-002  1.849777189423800E-002  1.895466686002500E-002 
 1.942284713146800E-002  1.990259145561500E-002  2.039418546456900E-002  2.089792184554400E-002 
 2.141410051512900E-002  2.194302879785200E-002  2.248502160915900E-002  2.304040164290600E-002 
 2.360949956348500E-002  2.419265420270300E-002  2.479021276151000E-002  2.540253101671900E-002 
 2.602997353283200E-002  2.667291387909300E-002  2.733173485190700E-002  2.800682870274900E-002 
 2.869859737170700E-002  2.940745272678800E-002  3.013381680914000E-002  3.087812208432600E-002 
 3.164081169980800E-002  3.242233974879400E-002  3.322317154058900E-002  3.404378387764100E-002 
 3.488466533941900E-002  3.574631657330300E-002  3.662925059266300E-002  3.753399308230200E-002 
 3.846108271143500E-002  3.941107145440700E-002  4.038452491933100E-002  4.138202268483900E-002 
 4.240415864515400E-002  4.345154136369000E-002  4.452479443537300E-002  4.562455685792700E-002 
 4.675148341231700E-002  4.790624505260200E-002  4.908952930540100E-002  5.030204067924400E-002 
 5.154450108402100E-002  5.281765026079700E-002  5.412224622223900E-002  5.545906570392800E-002 
 5.682890462681500E-002  5.823257857109700E-002  5.967092326180300E-002  6.114479506637000E-002 
 6.265507150450900E-002  6.420265177067000E-002  6.578845726940601E-002  6.741343216395999E-002 
 6.907854393840999E-002  7.078478397368899E-002  7.253316813783900E-002  7.432473739084400E-002 
 7.616055840439701E-002  7.804172419698600E-002  7.996935478465200E-002  8.194459784783301E-002 
 8.396862941467401E-002  8.604265456121600E-002  8.816790812887799E-002  9.034565545966200E-002 
 9.257719314951500E-002  9.486384982030800E-002  9.720698691087000E-002  9.960799948756900E-002 
 1.020683170749100E-001  1.045894045066600E-001  1.071727627979800E-001  1.098199300390900E-001 
 1.125324823110500E-001  1.153120346241300E-001  1.181602418793500E-001  1.210787998537700E-001 
 1.240694462101600E-001  1.271339615315500E-001  1.302741703813800E-001  1.334919423898000E-001 
 1.367891933668300E-001  1.401678864429900E-001  1.436300332381300E-001  1.471776950591100E-001 
 1.508129841270700E-001  1.545380648350100E-001  1.583551550364300E-001  1.622665273658300E-001 
 1.662745105917700E-001  1.703814910033900E-001  1.745899138311700E-001  1.789022847028000E-001 
 1.833211711349600E-001  1.878492040619900E-001  1.924890794023300E-001  1.972435596635600E-001 
 2.021154755872500E-001  2.071077278342600E-001  2.122232887117600E-001  2.174652039429400E-001 
 2.228365944803400E-001  2.283406583640000E-001  2.339806726255900E-001  2.397599952394400E-001 
 2.456820671218600E-001  2.517504141797700E-001  2.579686494100100E-001  2.643404750504300E-001 
 2.708696847841800E-001  2.775601659983500E-001  2.844159020985100E-001  2.914409748803400E-001 
 2.986395669598900E-001  3.060159642637900E-001  3.135745585811100E-001  3.213198501780600E-001 
 3.292564504774600E-001  3.373890848042500E-001  3.457225951989200E-001  3.542619433003300E-001 
 3.630122132998500E-001  3.719786149683600E-001  3.811664867580800E-001  3.905812989810000E-001 
 4.002286570658300E-001  4.101143048953600E-001  4.202441282262700E-001  4.306241581934600E-001 
 4.412605749008400E-001  4.521597111008900E-001  4.633280559650800E-001  4.747722589474200E-001 
 4.864991337434200E-001  4.985156623468800E-001  5.108289992068500E-001  5.234464754872600E-001 
 5.363756034318000E-001  5.496240808365600E-001  5.631997956332200E-001  5.771108305853700E-001 
 5.913654681008200E-001  6.059721951629100E-001  6.209397083834400E-001  6.362769191805100E-001 
 6.519929590842700E-001  6.680971851736500E-001  6.845991856474400E-001  7.015087855329299E-001 
 7.188360525355900E-001  7.365913030332200E-001  7.547851082181400E-001  7.734283003911300E-001 
 7.925319794107900E-001  8.121075193022400E-001  8.321665750290000E-001  8.527210894322200E-001 
 8.737833003412000E-001  8.953657478596200E-001  9.174812818317600E-001  9.401430694930000E-001 
 9.633646033094800E-001  9.871597090112200E-001  1.011542553823800E+000  1.036527654903200E+000 
 1.062129887979400E+000  1.088364496212400E+000  1.115247099268900E+000  1.142793702620800E+000 
 1.171020707075600E+000  1.199944918540300E+000  1.229583558028300E+000  1.259954271911600E+000 
 1.291075142427800E+000  1.322964698445800E+000  1.355641926497400E+000  1.389126282081900E+000 
 1.423437701249300E+000  1.458596612470100E+000  1.494623948798200E+000  1.531541160333500E+000 
 1.569370226993700E+000  1.608133671600400E+000  1.647854573289000E+000  1.688556581249200E+000 
 1.730263928806100E+000  1.773001447847600E+000  1.816794583609400E+000  1.861669409824600E+000 
 1.907652644247200E+000  1.954771664560100E+000  2.003054524674800E+000  2.052529971434200E+000 
 2.103227461728700E+000  2.155177180033400E+000  2.208410056380200E+000  2.262957784772800E+000 
 2.318852842056700E+000  2.376128507255500E+000  2.434818881384700E+000  2.494958907754900E+000 
 2.556584392776400E+000  2.619732027278000E+000  2.684439408351800E+000  2.750745061738100E+000 
 2.818688464763000E+000  2.888310069842600E+000  2.959651328567700E+000  3.032754716383400E+000 
 3.107663757878000E+000  3.184423052697600E+000  3.263078302099300E+000  3.343676336161100E+000 
 3.426265141664300E+000  3.510893890663400E+000  3.597612969762800E+000  3.686474010115900E+000 
 3.777529918165800E+000  3.870834907144500E+000  3.966444529350900E+000  4.064415709225900E+000 
 4.164806777243800E+000  4.267677504641700E+000  4.373089139006400E+000  4.481104440739800E+000 
 4.591787720426100E+000  4.705204877120600E+000  4.821423437585500E+000  4.940512596493900E+000 
 5.062543257627300E+000  5.187588076090700E+000  5.315721501570100E+000  5.447019822658900E+000 
 5.581561212278500E+000  5.719425774221800E+000  5.860695590845100E+000  6.005454771939000E+000 
 6.153789504805900E+000  6.305788105574600E+000  6.461541071782300E+000  6.621141136255300E+000 
 6.784683322320800E+000  6.952265000382100E+000  7.123985945891600E+000  7.299948398755100E+000 
 7.480257124204300E+000  7.665019475172200E+000  7.854345456208900E+000  8.048347788977299E+000 
 8.247141979365001E+000  8.450846386255300E+000  8.659582291995800E+000  8.873473974608100E+000 
 9.092648781781000E+000  9.317237206690899E+000  9.547372965696200E+000  9.783193077948900E+000 
 1.002483794697400E+001  1.027245144426500E+001  1.052618099493800E+001  1.078617766551300E+001 
 1.105259625385100E+001  1.132559538132100E+001  1.160533758724000E+001  1.189198942564500E+001 
 1.218572156445800E+001  1.248670888710000E+001  1.279513059661100E+001  1.311117032234800E+001 
 1.343501622931000E+001  1.376686113017400E+001  1.410690260008900E+001  1.445534309431100E+001 
 1.481239006874100E+001  1.517825610343900E+001  1.555315902919300E+001  1.593732205721500E+001 
 1.633097391202800E+001  1.673434896765500E+001  1.714768738715600E+001  1.757123526561900E+001 
 1.800524477667900E+001  1.844997432266300E+001  1.890568868843300E+001  1.937265919903800E+001 
 1.985116388125400E+001  2.034148762912100E+001  2.084392237356000E+001  2.135876725618700E+001 
 2.188632880741500E+001  2.242692112895800E+001  2.298086608084300E+001  2.354849347304000E+001 
 2.413014126182400E+001  2.472615575099100E+001  2.533689179804100E+001  2.596271302545200E+001 
 2.660399203718100E+001  2.726111064049900E+001  2.793446007332000E+001  2.862444123713100E+001 
 2.933146493568800E+001  3.005595211959900E+001  3.079833413695300E+001  3.155905299013600E+001 
 3.233856159899200E+001  3.313732407048700E+001  3.395581597502800E+001  3.479452462961200E+001 
 3.565394938796300E+001  3.653460193784600E+001  3.743700660571100E+001  3.836170066887200E+001 
 3.930923467539300E+001  4.028017277187500E+001  4.127509303934000E+001  4.229458783741200E+001 
 4.333926415699600E+001  4.440974398167400E+001  4.550666465802100E+001  4.663067927507400E+001 
 4.778245705316900E+001  4.896268374238200E+001  5.017206203081900E+001  5.141131196298000E+001 
 5.268117136846600E+001  5.398239630126700E+001  5.531576148990800E+001  5.668206079870900E+001 
 5.808210770043700E+001  5.951673576063800E+001  6.098679913392500E+001  6.249317307253300E+001 
 6.403675444742500E+001  6.561846228227600E+001  6.723923830064800E+001  6.890004748667400E+001 
 7.060187865959500E+001  7.234574506248700E+001  7.413268496553100E+001  7.596376228417900E+001 
 7.784006721259900E+001
    </PP_R>
    <PP_RAB type="real" size="561" columns="4">
 2.210134676044859E-006  2.264725002543150E-006  2.320663710105965E-006  2.377984103745587E-006 
 2.436720311108114E-006  2.496907302792513E-006  2.558580913171484E-006  2.621777861726864E-006 
 2.686535774911445E-006  2.752893208551647E-006  2.820889670802941E-006  2.890565645671823E-006 
 2.961962617119971E-006  3.035123093762794E-006  3.110090634178699E-006  3.186909872842997E-006 
 3.265626546702065E-006  3.346287522405572E-006  3.428940824209216E-006  3.513635662566994E-006 
 3.600422463432543E-006  3.689352898279293E-006  3.780479914866776E-006  3.873857768764056E-006 
 3.969542055652499E-006  4.067589744427143E-006  4.168059211114498E-006  4.271010273628960E-006 
 4.376504227387621E-006  4.484603881803955E-006  4.595373597684557E-006  4.708879325547450E-006 
 4.825188644888338E-006  4.944370804417235E-006  5.066496763286230E-006  5.191639233339348E-006 
 5.319872722402832E-006  5.451273578646331E-006  5.585920036038918E-006  5.723892260928958E-006 
 5.865272399773945E-006  6.010144628048372E-006  6.158595200361096E-006  6.310712501810023E-006 
 6.466587100604857E-006  6.626311801989631E-006  6.789981703498931E-006  6.957694251575156E-006 
 7.129549299589243E-006  7.305649167289048E-006  7.486098701720983E-006  7.671005339653460E-006 
 7.860479171542906E-006  8.054633007080158E-006  8.253582442355051E-006  8.457445928681178E-006 
 8.666344843119622E-006  8.880403560744580E-006  9.099749528695075E-006  9.324513342053716E-006 
 9.554828821602559E-006  9.790833093496047E-006  1.003266667090548E-005  1.028047353767696E-005 
 1.053440123405743E-005  1.079460094453872E-005  1.106122758786867E-005  1.133443990928908E-005 
 1.161440057504867E-005  1.190127626925232E-005  1.219523779310271E-005  1.249646016659251E-005 
 1.280512273270725E-005  1.312140926420505E-005  1.344550807303110E-005  1.377761212243492E-005 
 1.411791914185915E-005  1.446663174466292E-005  1.482395754875608E-005  1.519010930021029E-005 
 1.556530499992564E-005  1.594976803342366E-005  1.634372730384937E-005  1.674741736825446E-005 
 1.716107857725023E-005  1.758495721810833E-005  1.801930566139576E-005  1.846438251123207E-005 
 1.892045275925948E-005  1.938778794241326E-005  1.986666630459078E-005  2.035737296231425E-005 
 2.086020007448346E-005  2.137544701632304E-005  2.190342055762633E-005  2.244443504539972E-005 
 2.299881259102107E-005  2.356688326201934E-005  2.414898527859107E-005  2.474546521497240E-005 
 2.535667820578160E-005  2.598298815746528E-005  2.662476796495380E-005  2.728239973368828E-005 
 2.795627500711050E-005  2.864679499978676E-005  2.935437083628030E-005  3.007942379593828E-005 
 3.082238556369584E-005  3.158369848712148E-005  3.236381583975295E-005  3.316320209099411E-005 
 3.398233318264125E-005  3.482169681225369E-005  3.568179272351480E-005  3.656313300378624E-005 
 3.746624238897965E-005  3.839165857598740E-005  3.933993254281403E-005  4.031162887662296E-005 
 4.130732610987422E-005  4.232761706478737E-005  4.337310920628834E-005  4.444442500368407E-005 
 4.554220230127483E-005  4.666709469811649E-005  4.781977193715965E-005  4.900092030400730E-005 
 5.021124303551771E-005  5.145146073849427E-005  5.272231181873563E-005  5.402455292065811E-005 
 5.535895937779821E-005  5.672632567442914E-005  5.812746591858928E-005  5.956321432677611E-005 
 6.103442572064742E-005  6.254197603594927E-005  6.408676284403674E-005  6.566970588628508E-005 
 6.729174762167446E-005  6.895385378793127E-005  7.065701397649185E-005  7.240224222171102E-005 
 7.419057760458847E-005  7.602308487142057E-005  7.790085506774600E-005  7.982500618791956E-005 
 8.179668384076066E-005  8.381706193162761E-005  8.588734336133788E-005  8.800876074236331E-005 
 9.018257713270056E-005  9.241008678787808E-005  9.469261593153880E-005  9.703152354504715E-005 
 9.942820217661137E-005  1.018840787703721E-004  1.044006155160017E-004  1.069793107192455E-004 
 1.096216996940114E-004  1.123293556764526E-004  1.151038907616627E-004  1.179469568634741E-004 
 1.208602466980029E-004  1.238454947914423E-004  1.269044785127929E-004  1.300390191320588E-004 
 1.332509829046199E-004  1.365422821823638E-004  1.399148765522678E-004  1.433707740031083E-004 
 1.469120321209870E-004  1.505407593143740E-004  1.542591160694400E-004  1.580693162363552E-004 
 1.619736283473929E-004  1.659743769675734E-004  1.700739440786714E-004  1.742747704974163E-004 
 1.785793573287021E-004  1.829902674547207E-004  1.875101270608521E-004  1.921416271992536E-004 
 1.968875253910755E-004  2.017506472682370E-004  2.067338882557617E-004  2.118402152956785E-004 
 2.170726686134829E-004  2.224343635282357E-004  2.279284923073834E-004  2.335583260673754E-004 
 2.393272167212385E-004  2.452385989742511E-004  2.512959923689145E-004  2.575030033804255E-004 
 2.638633275639144E-004  2.703807517547568E-004  2.770591563230985E-004  2.839025174842805E-004 
 2.909149096661408E-004  2.981005079348999E-004  3.054635904808744E-004  3.130085411657527E-004 
 3.207398521325528E-004  3.286621264802406E-004  3.367800810043004E-004  3.450985490050891E-004 
 3.536224831655341E-004  3.623569584997134E-004  3.713071753746597E-004  3.804784626064130E-004 
 3.898762806327867E-004  3.995062247644090E-004  4.093740285161115E-004  4.194855670204505E-004 
 4.298468605258445E-004  4.404640779808445E-004  4.513435407069760E-004  4.624917261624218E-004 
 4.739152717986430E-004  4.856209790120632E-004  4.976158171936686E-004  5.099069278783558E-004 
 5.225016289969527E-004  5.354074192331607E-004  5.486319824882211E-004  5.621831924556991E-004 
 5.760691173093359E-004  5.902980245068746E-004  6.048783857122000E-004  6.198188818392842E-004 
 6.351284082207155E-004  6.508160799037683E-004  6.668912370774013E-004  6.833634506332105E-004 
 7.002425278638533E-004  7.175385183020865E-004  7.352617197041562E-004  7.534226841808548E-004 
 7.720322244801011E-004  7.911014204247778E-004  8.106416255092646E-004  8.306644736593301E-004 
 8.511818861587220E-004  8.722060787468511E-004  8.937495688918839E-004  9.158251832435190E-004 
 9.384460652696374E-004  9.616256830817865E-004  9.853778374539102E-004  1.009716670039035E-003 
 1.034656671788986E-003  1.060212691582191E-003  1.086399945064268E-003  1.113234023707362E-003 
 1.140730904092914E-003  1.168906957424028E-003  1.197778959272395E-003  1.227364099566413E-003 
 1.257679992825696E-003  1.288744688648507E-003  1.320576682458133E-003  1.353194926514841E-003 
 1.386618841199757E-003  1.420868326577383E-003  1.455963774243842E-003  1.491926079467677E-003 
 1.528776653630520E-003  1.566537436975185E-003  1.605230911668483E-003  1.644880115186686E-003 
 1.685508654031802E-003  1.727140717786394E-003  1.769801093515715E-003  1.813515180525563E-003 
 1.858309005484523E-003  1.904209237920001E-003  1.951243206096636E-003  1.999438913287225E-003 
 2.048825054445408E-003  2.099431033290198E-003  2.151286979812465E-003  2.204423768213851E-003 
 2.258873035288717E-003  2.314667199260348E-003  2.371839479082088E-003  2.430423914215428E-003 
 2.490455384896501E-003  2.551969632903438E-003  2.615003282836287E-003  2.679593863922341E-003 
 2.745779832361088E-003  2.813600594220336E-003  2.883096528897675E-003  2.954309013161449E-003 
 3.027280445786582E-003  3.102054272797488E-003  3.178675013335603E-003  3.257188286164990E-003 
 3.337640836833313E-003  3.420080565503079E-003  3.504556555470960E-003  3.591119102391048E-003 
 3.679819744220107E-003  3.770711291902377E-003  3.863847860812250E-003  3.959284902974316E-003 
 4.057079240077880E-003  4.157289097307884E-003  4.259974138011297E-003  4.365195499220179E-003 
 4.473015828050937E-003  4.583499319003709E-003  4.696711752183317E-003  4.812720532462061E-003 
 4.931594729613875E-003  5.053405119435459E-003  5.178224225885363E-003  5.306126364264720E-003 
 5.437187685462287E-003  5.571486221293098E-003  5.709101930959018E-003  5.850116748653655E-003 
 5.994614632345543E-003  6.142681613764480E-003  6.294405849624454E-003  6.449877674110002E-003 
 6.609189652660625E-003  6.772436637081360E-003  6.939715822017288E-003  7.111126802821038E-003 
 7.286771634850855E-003  7.466754894231445E-003  7.651183740119067E-003  7.840167978499925E-003 
 8.033820127568920E-003  8.232255484719793E-003  8.435592195192495E-003  8.643951322413669E-003 
 8.857456920077332E-003  9.076236106003331E-003  9.300419137821651E-003  9.530139490525735E-003 
 9.765533935941702E-003  1.000674262415956E-002  1.025390916697617E-002  1.050718072340051E-002 
 1.076670808726854E-002  1.103264577702405E-002  1.130515212771650E-002  1.158438938527116E-002 
 1.187052380308732E-002  1.216372574102352E-002  1.246416976682685E-002  1.277203476006749E-002 
 1.308750401864128E-002  1.341076536790158E-002  1.374201127248868E-002  1.408143895091938E-002 
 1.442925049300688E-002  1.478565298018414E-002  1.515085860879484E-002  1.552508481643205E-002 
 1.590855441139795E-002  1.630149570535945E-002  1.670414264928185E-002  1.711673497271906E-002 
 1.753951832654514E-002  1.797274442921083E-002  1.841667121661232E-002  1.887156299566270E-002 
 1.933769060165554E-002  1.981533155951652E-002  2.030477024903645E-002  2.080629807418774E-002 
 2.132021363662028E-002  2.184682291344461E-002  2.238643943940687E-002  2.293938449356011E-002 
 2.350598729055112E-002  2.408658517662763E-002  2.468152383049041E-002  2.529115746910235E-002 
 2.591584905859139E-002  2.655597053033638E-002  2.721190300243700E-002  2.788403700659617E-002 
 2.857277272066071E-002  2.927852020685939E-002  3.000169965597015E-002  3.074274163747263E-002 
 3.150208735591781E-002  3.228018891360979E-002  3.307750957977568E-002  3.389452406639648E-002 
 3.473171881083592E-002  3.558959226546216E-002  3.646865519442123E-002  3.736943097772306E-002 
 3.829245592287190E-002  3.923827958416576E-002  4.020746508989636E-002  4.120058947761587E-002 
 4.221824403771407E-002  4.326103466544535E-002  4.432958222168097E-002  4.542452290255766E-002 
 4.654650861824919E-002  4.769620738111980E-002  4.887430370343506E-002  5.008149900490826E-002 
 5.131851203033133E-002  5.258607927748053E-002  5.388495543563369E-002  5.521591383489408E-002 
 5.657974690661624E-002  5.797726665520965E-002  5.940930514159306E-002  6.087671497859037E-002 
 6.238036983856041E-002  6.392116497357342E-002  6.550001774842150E-002  6.711786818680777E-002 
 6.877567953102116E-002  7.047443881543626E-002  7.221515745417724E-002  7.399887184329731E-002 
 7.582664397782506E-002  7.769956208407765E-002  7.961874126755607E-002  8.158532417686341E-002 
 8.360048168403246E-002  8.566541358162785E-002  8.778134929709440E-002  8.994954862473163E-002 
 9.217130247576341E-002  9.444793364691488E-002  9.678079760799199E-002  9.917128330891019E-002 
 1.016208140066408E-001  1.041308481126043E-001  1.067028800609868E-001  1.093384411984918E-001 
 1.120391006960952E-001  1.148064664832881E-001  1.176421862054258E-001  1.205479482047008E-001 
 1.235254825253569E-001  1.265765619437334E-001  1.297030030237426E-001  1.329066671984295E-001 
 1.361894618782289E-001  1.395533415866216E-001  1.430003091238117E-001  1.465324167591705E-001 
 1.501517674531222E-001  1.538605161092142E-001  1.576608708571119E-001  1.615550943672820E-001 
 1.655455051981538E-001  1.696344791765476E-001  1.738244508122098E-001  1.781179147472709E-001 
 1.825174272415272E-001  1.870256076943942E-001  1.916451402044445E-001  1.963787751674952E-001 
 2.012293309141314E-001  2.061996953877101E-001  2.112928278637864E-001  2.165117607120220E-001 
 2.218596012016109E-001  2.273395333512885E-001  2.329548198250661E-001  2.387088038747454E-001 
 2.446049113304458E-001  2.506466526403259E-001  2.568376249605335E-001  2.631815142970594E-001 
 2.696820977001926E-001  2.763432455133845E-001  2.831689236775741E-001  2.901631960924144E-001 
 2.973302270358865E-001  3.046742836436702E-001  3.121997384496598E-001  3.199110719893837E-001 
 3.278128754675216E-001  3.359098534915704E-001  3.442068268728050E-001  3.527087354965584E-001 
 3.614206412633360E-001  3.703477311025428E-001  3.794953200607526E-001  3.888688544662759E-001 
 3.984739151715878E-001  4.083162208763237E-001  4.184016315319671E-001  4.287361518308127E-001 
 4.393259347810145E-001  4.501772853701063E-001  4.612966643187533E-001  4.726906919274438E-001 
 4.843661520180458E-001  4.963299959728922E-001  5.085893468734156E-001  5.211515037411906E-001 
 5.340239458836025E-001  5.472143373469237E-001  5.607305314793863E-001  5.745805756069315E-001 
 5.887727158244206E-001  6.033154019052825E-001  6.182172923323557E-001  6.334872594529499E-001 
 6.491343947614460E-001  6.651680143120446E-001  6.815976642655686E-001  6.984331265729280E-001 
 7.156844247992761E-001  7.333618300918061E-001  7.514758672950714E-001  7.700373212172660E-001 
 7.890572430513237E-001  8.085469569546889E-001  8.285180667914691E-001  8.489824630412380E-001 
 8.699523298783466E-001  8.914401524263493E-001  9.134587241912850E-001  9.360211546788083E-001 
 9.591408771993716E-001  9.828316568661910E-001  1.007107598790778E+000  1.031983156480918E+000 
 1.057473140445995E+000  1.083592727015016E+000  1.110357467372278E+000  1.137783296816370E+000 
 1.165886544247751E+000  1.194683941890664E+000  1.224192635255367E+000  1.254430193346169E+000 
 1.285414619121829E+000  1.317164360214136E+000  1.349698319911418E+000  1.383035868413236E+000 
 1.417196854363040E+000  1.452201616665813E+000  1.488070996597440E+000  1.524826350213398E+000 
 1.562489561063679E+000  1.601083053221942E+000  1.640629804636519E+000  1.681153360811041E+000 
 1.722677848823078E+000  1.765227991689007E+000  1.808829123083740E+000  1.853507202423893E+000 
 1.899288830323782E+000
    </PP_RAB>
  </PP_MESH>
  <PP_LOCAL type="real" size="561" columns="4">
-2.200796223961600E+001 -2.200817208918400E+001 -2.200837688040600E+001 -2.200857673521200E+001 
-2.200877177259400E+001 -2.200896210867200E+001 -2.200914785677000E+001 -2.200932912748000E+001 
-2.200950602872600E+001 -2.200967866583200E+001 -2.200984714158600E+001 -2.201001155629400E+001 
-2.201017200784600E+001 -2.201032859177200E+001 -2.201048140130000E+001 -2.201063052740800E+001 