<UPF version="2.0.1">
  <PP_INFO>
    Generated using FHI98PP, converted with fhi2upf.x v.5.0.2
    Origin: Abinit web site
    Date: 08-Sep-2012 (PG)
    Pseudopotential type: SL
    Element:  U
    Functional: PBE

    Suggested minimum cutoff for wavefunctions:   0. Ry
    Suggested minimum cutoff for charge density:   0. Ry
    The Pseudo was generated with a Non-Relativistic Calculation
    L component and cutoff radius for Local Potential:  1   0.0000

    Valence configuration: 
    nl pn  l   occ       Rcut    Rcut US       E pseu
    7s  7  0  2.00      0.000      0.000     0.000000
    7p  7  1  0.00      0.000      0.000     0.000000
    6d  6  2  1.00      0.000      0.000     0.000000
    5f  5  3  3.00      0.000      0.000     0.000000

    Generation configuration: not available.
    Comment:
    uranium, fhi98PP : Trouiller-Martins-type, GGA Perdew/Burke/Ernzerhof (1996), l=
  </PP_INFO>
  <!--                               -->
  <!-- END OF HUMAN READABLE SECTION -->
  <!--                               -->
  <PP_HEADER generated="Generated using FHI98PP, converted with fhi2upf.x v.5.0.2"
             author="unknown"
             date="unknown"
             comment="uranium, fhi98PP : Trouiller-Martins-type, GGA Perdew/Burke/Ernzerhof (1996), l="
             element=" U"
             pseudo_type="SL"
             relativistic="no"
             is_ultrasoft="F"
             is_paw="F"
             is_coulomb="F"
             has_so="F"
             has_wfc="F"
             has_gipaw="F"
             paw_as_gipaw="F"
             core_correction="T"
             functional="PBE"
             z_valence="6.000000000000000E+000"
             total_psenergy="0.000000000000000E+000"
             wfc_cutoff="0.000000000000000E+000"
             rho_cutoff="0.000000000000000E+000"
             l_max="3"
             l_max_rho="0"
             l_local="1"
             mesh_size="573"
             number_of_wfc="4"
             number_of_proj="3"/>
  <PP_MESH dx="2.439988682353512E-002" mesh="573" xmin="-5.075173815233822E+000" rmax="7.823936195952200E+001"
zmesh="9.200000000000000E+001">
    <PP_R type="real" size="573" columns="4">
 6.793478260869601E-005  6.961277173913000E-005  7.133220720108700E-005  7.309411271895400E-005 
 7.489953730311200E-005  7.674955587449900E-005  7.864526990459900E-005  8.058780807124300E-005 
 8.257832693060200E-005  8.461801160578799E-005  8.670807649245100E-005  8.884976598181499E-005 
 9.104435520156500E-005  9.329315077504400E-005  9.559749159918801E-005  9.795874964168800E-005 
 1.003783307578400E-004  1.028576755275600E-004  1.053982601130900E-004  1.080015971378800E-004 
 1.106692365871900E-004  1.134027667308900E-004  1.162038150691400E-004  1.190740493013500E-004 
 1.220151783190900E-004  1.250289532235700E-004  1.281171683682000E-004  1.312816624268900E-004 
 1.345243194888400E-004  1.378470701802100E-004  1.412518928136600E-004  1.447408145661600E-004 
 1.483159126859400E-004  1.519793157292800E-004  1.557332048278000E-004  1.595798149870400E-004 
 1.635214364172200E-004  1.675604158967300E-004  1.716991581693800E-004  1.759401273761600E-004 
 1.802858485223500E-004  1.847389089808600E-004  1.893019600326800E-004  1.939777184454900E-004 
 1.987689680910900E-004  2.036785616029400E-004  2.087094220745400E-004  2.138645447997800E-004 
 2.191469990563300E-004  2.245599299330200E-004  2.301065602023700E-004  2.357901922393700E-004 
 2.416142099876800E-004  2.475820809743800E-004  2.536973583744400E-004  2.599636831262900E-004 
 2.663847860995100E-004  2.729644903161700E-004  2.797067132269800E-004  2.866154690436900E-004 
 2.936948711290600E-004  3.009491344459500E-004  3.083825780667700E-004  3.159996277450200E-004 
 3.238048185503200E-004  3.318027975685100E-004  3.399983266684500E-004  3.483962853371600E-004 
 3.570016735849900E-004  3.658196149225400E-004  3.748553594111300E-004  3.841142867885800E-004 
 3.936019096722600E-004  4.033238768411700E-004  4.132859765991400E-004  4.234941402211400E-004 
 4.339544454846000E-004  4.446731202880700E-004  4.556565463591900E-004  4.669112630542600E-004 
 4.784439712517000E-004  4.902615373416200E-004  5.023709973139600E-004  5.147795609476100E-004 
 5.274946161030200E-004  5.405237331207600E-004  5.538746693288400E-004  5.675553736612700E-004 
 5.815739913907001E-004  5.959388689780500E-004  6.106585590418099E-004  6.257418254501400E-004 
 6.411976485387599E-004  6.570352304576700E-004  6.732640006499700E-004  6.898936214660200E-004 
 7.069339939162400E-004  7.243952635659700E-004  7.422878265760500E-004  7.606223358924699E-004 
 7.794097075890200E-004  7.986611273664700E-004  8.183880572124200E-004  8.386022422255700E-004 
 8.593157176085400E-004  8.805408158334700E-004  9.022901739845500E-004  9.245767412819700E-004 
 9.474137867916400E-004  9.708149073253900E-004  9.947940355363300E-004  1.019365448214100E-003 
 1.044543774785000E-003  1.070344006022200E-003  1.096781502970900E-003  1.123872006094300E-003 
 1.151631644644800E-003  1.180076946267500E-003  1.209224846840300E-003  1.239092700557300E-003 
 1.269698290261100E-003  1.301059838030500E-003  1.333196016029900E-003  1.366125957625800E-003 
 1.399869268779200E-003  1.434446039718000E-003  1.469876856899000E-003  1.506182815264400E-003 
 1.543385530801500E-003  1.581507153412300E-003  1.620570380101600E-003  1.660598468490100E-003 
 1.701615250661800E-003  1.743645147353100E-003  1.786713182492700E-003  1.830844998100300E-003 
 1.876066869553400E-003  1.922405721231400E-003  1.969889142545800E-003  2.018545404366700E-003 
 2.068403475854500E-003  2.119493041708100E-003  2.171844519838300E-003  2.225489079478300E-003 
 2.280458659741400E-003  2.336785988637000E-003  2.394504602556400E-003  2.453648866239500E-003 
 2.514253993235600E-003  2.576356066868500E-003  2.639992061720200E-003  2.705199865644700E-003 
 2.772018302326100E-003  2.840487154393600E-003  2.910647187107100E-003  2.982540172628600E-003 
 3.056208914892600E-003  3.131697275090400E-003  3.209050197785100E-003  3.288313737670400E-003 
 3.369535086990900E-003  3.452762603639600E-003  3.538045839949500E-003  3.625435572196200E-003 
 3.714983830829500E-003  3.806743931451000E-003  3.900770506557800E-003  3.997119538069800E-003 
 4.095848390660100E-003  4.197015845909400E-003  4.300682137303400E-003  4.406908986094700E-003 
 4.515759638051300E-003  4.627298901111200E-003  4.741593183968600E-003  4.858710535612600E-003 
 4.978720685842300E-003  5.101695086782600E-003  5.227706955426100E-003  5.356831317225100E-003 
 5.489145050760600E-003  5.624726933514400E-003  5.763657688772200E-003  5.906020033684800E-003 
 6.051898728516800E-003  6.201380627111200E-003  6.354554728600900E-003  6.511512230397300E-003 
 6.672346582488100E-003  6.837153543075600E-003  7.006031235589500E-003  7.179080207108600E-003 
 7.356403488224200E-003  7.538106654383300E-003  7.724297888746600E-003  7.915088046598601E-003 
 8.110590721349601E-003  8.310922312166900E-003  8.516202093277501E-003  8.726552284981400E-003 
 8.942098126420500E-003  9.162967950143000E-003  9.389293258511599E-003  9.621208801996800E-003 
 9.858852659406100E-003  1.010236632009300E-002  1.035189476820000E-002  1.060758656897400E-002 
 1.086959395722800E-002  1.113807292797100E-002  1.141318332929200E-002  1.169508895752600E-002 
 1.198395765477700E-002  1.227996140885000E-002  1.258327645564800E-002  1.289408338410300E-002 
 1.321256724369000E-002  1.353891765460900E-002  1.387332892067800E-002  1.421600014501900E-002 
 1.456713534860100E-002  1.492694359171100E-002  1.529563909842700E-002  1.567344138415800E-002 
 1.606057538634700E-002  1.645727159838900E-002  1.686376620686900E-002  1.728030123217900E-002 
 1.770712467261400E-002  1.814449065202800E-002  1.859265957113300E-002  1.905189826254000E-002 
 1.952248014962400E-002  2.000468540932000E-002  2.049880113893000E-002  2.100512152706200E-002 
 2.152394802878000E-002  2.205558954509100E-002  2.260036260685500E-002  2.315859156324400E-002 
 2.373060877485600E-002  2.431675481159500E-002  2.491737865544200E-002  2.553283790823100E-002 
 2.616349900456400E-002  2.680973742997700E-002  2.747193794449800E-002  2.815049481172700E-002 
 2.884581203357600E-002  2.955830359080600E-002  3.028839368949800E-002  3.103651701362900E-002 
 3.180311898386600E-002  3.258865602276700E-002  3.339359582653000E-002  3.421841764344500E-002 
 3.506361255923800E-002  3.592968378945100E-002  3.681714697905100E-002  3.772653050943300E-002 
 3.865837581301600E-002  3.961323769559800E-002  4.059168466667900E-002  4.159429927794600E-002 
 4.262167847011100E-002  4.367443392832300E-002  4.475319244635200E-002  4.585859629977700E-002 
 4.699130362838200E-002  4.815198882800300E-002  4.934134295205400E-002  5.056007412297000E-002 
 5.180890795380800E-002  5.308858798026700E-002  5.439987610337900E-002  5.574355304313300E-002 
 5.712041880329800E-002  5.853129314773900E-002  5.997701608848900E-002  6.145844838587400E-002 
 6.297647206100500E-002  6.453199092091200E-002  6.612593109665900E-002  6.775924159474600E-002 
 6.943289486213600E-002  7.114788736523101E-002  7.290524018315200E-002  7.470599961567601E-002 
 7.655123780618400E-002  7.844205337999600E-002  8.037957209848200E-002  8.236494752931500E-002 
 8.439936173328901E-002  8.648402596810099E-002  8.862018140951300E-002  9.080909989032800E-002 
 9.305208465761899E-002  9.535047114866201E-002  9.770562778603401E-002  1.001189567923500E-001 
 1.025918950251200E-001  1.051259148322400E-001  1.077225249286000E-001  1.103832712943300E-001 
 1.131097380953000E-001  1.159035486262600E-001  1.187663662773300E-001  1.216998955243800E-001 
 1.247058829438300E-001  1.277861182525400E-001  1.309424353733800E-001  1.341767135271000E-001 
 1.374908783512200E-001  1.408869030465000E-001  1.443668095517400E-001  1.479326697476700E-001 
 1.515866066904400E-001  1.553307958756900E-001  1.591674665338200E-001  1.630989029572100E-001 
 1.671274458602500E-001  1.712554937730000E-001  1.754855044691900E-001  1.798199964295800E-001 
 1.842615503413900E-001  1.888128106348200E-001  1.934764870575000E-001  1.982553562878300E-001 
 2.031522635881300E-001  2.081701244987600E-001  2.133119265738800E-001  2.185807311602600E-001 
 2.239796752199100E-001  2.295119731978500E-001  2.351809189358300E-001  2.409898876335500E-001 
 2.469423378581000E-001  2.530418136031900E-001  2.592919463991900E-001  2.656964574752500E-001 
 2.722591599748900E-001  2.789839612262700E-001  2.858748650685600E-001  2.929359742357500E-001 
 3.001714927993700E-001  3.075857286715200E-001  3.151830961697000E-001  3.229681186451000E-001 
 3.309454311756300E-001  3.391197833256700E-001  3.474960419738100E-001  3.560791942105700E-001 
 3.648743503075700E-001  3.738867467601600E-001  3.831217494051400E-001  3.925848566154500E-001 
 4.022817025738500E-001  4.122180606274200E-001  4.223998467249200E-001  4.328331229390200E-001 
 4.435241010756200E-001  4.544791463721900E-001  4.657047812875800E-001  4.772076893853800E-001 
 4.889947193132000E-001  5.010728888802400E-001  5.134493892355800E-001  5.261315891497000E-001 
 5.391270394016900E-001  5.524434772749200E-001  5.660888311636100E-001  5.800712252933500E-001 
 5.943989845580900E-001  6.090806394766800E-001  6.241249312717499E-001  6.395408170741600E-001 
 6.553374752559000E-001  6.715243108947200E-001  6.881109613738200E-001  7.051073021197500E-001 
 7.225234524821100E-001  7.403697817584201E-001  7.586569153678500E-001  7.773957411774300E-001 
 7.965974159845201E-001  8.162733721593300E-001  8.364353244516700E-001  8.570952769656300E-001 
 8.782655303066800E-001  8.999586889052500E-001  9.221876685212100E-001  9.449657039336899E-001 
 9.683063568208500E-001  9.922235238343200E-001  1.016731444873000E+000  1.041844711561400E+000 
 1.067578275937000E+000  1.093947459352600E+000  1.120967961598600E+000  1.148655870250100E+000 
 1.177027670245300E+000  1.206100253700300E+000  1.235890929966700E+000  1.266417435936900E+000 
 1.297697946604600E+000  1.329751085885700E+000  1.362595937707100E+000  1.396252057368400E+000 
 1.430739483185400E+000  1.466078748420100E+000  1.502290893506100E+000  1.539397478575700E+000 
 1.577420596296500E+000  1.616382885025000E+000  1.656307542285100E+000  1.697218338579600E+000 
 1.739139631542500E+000  1.782096380441600E+000  1.826114161038500E+000  1.871219180816200E+000 
 1.917438294582300E+000  1.964799020458500E+000  2.013329556263800E+000  2.063058796303500E+000 
 2.114016348572200E+000  2.166232552382000E+000  2.219738496425800E+000  2.274566037287500E+000 
 2.330747818408500E+000  2.388317289523200E+000  2.447308726574400E+000  2.507757252120800E+000 
 2.569698856248200E+000  2.633170417997500E+000  2.698209727322100E+000  2.764855507586900E+000 
 2.833147438624300E+000  2.903126180358400E+000  2.974833397013200E+000  3.048311781919400E+000 
 3.123605082932800E+000  3.200758128481300E+000  3.279816854254800E+000  3.360828330554900E+000 
 3.443840790319600E+000  3.528903657840500E+000  3.616067578189100E+000  3.705384447370400E+000 
 3.796907443220400E+000  3.890691057068000E+000  3.986791126177600E+000  4.085264866994200E+000 
 4.186170909208900E+000  4.289569330666400E+000  4.395521693133800E+000  4.504091078954200E+000 
 4.615342128604400E+000  4.729341079180900E+000  4.846155803836700E+000  4.965855852191500E+000 
 5.088512491740600E+000  5.214198750286600E+000  5.342989459418700E+000  5.474961299066300E+000 
 5.610192843153200E+000  5.748764606379100E+000  5.890759092156700E+000  6.036260841733000E+000 
 6.185356484523800E+000  6.338134789691500E+000  6.494686718996900E+000  6.655105480956100E+000 
 6.819486586335700E+000  6.987927905018200E+000  7.160529724272200E+000  7.337394808461700E+000 
 7.518628460230700E+000  7.704338583198400E+000  7.894635746203400E+000  8.089633249134600E+000 
 8.289447190388200E+000  8.494196535990801E+000  8.704003190429800E+000  8.918992069233401E+000 
 9.139291173343500E+000  9.365031665325100E+000  9.596347947458600E+000  9.833377741760801E+000 
 1.007626217198200E+001  1.032514584763000E+001  1.058017695006700E+001  1.084150732073300E+001 
 1.110929255155500E+001  1.138369207757900E+001  1.166486927189500E+001  1.195299154291100E+001 
 1.224823043402100E+001  1.255076172574100E+001  1.286076554036700E+001  1.317842644921400E+001 
 1.350393358251000E+001  1.383748074199800E+001  1.417926651632500E+001  1.452949439927800E+001 
 1.488837291094000E+001  1.525611572184100E+001  1.563294178017000E+001  1.601907544214000E+001 
 1.641474660556100E+001  1.682019084671800E+001  1.723564956063200E+001  1.766137010478000E+001 
 1.809760594636800E+001  1.854461681324300E+001  1.900266884853000E+001  1.947203476908900E+001 
 1.995299402788600E+001  2.044583298037400E+001  2.095084505499000E+001  2.146833092784800E+001 
 2.199859870176600E+001  2.254196408969900E+001  2.309875060271500E+001  2.366928974260200E+001 
 2.425392119924400E+001  2.485299305286600E+001  2.546686198127100E+001  2.609589347220900E+001 
 2.674046204097200E+001  2.740095145338400E+001  2.807775495428300E+001  2.877127550165400E+001 
 2.948192600654500E+001  3.021012957890600E+001  3.095631977950500E+001  3.172094087805900E+001 
 3.250444811774700E+001  3.330730798625500E+001  3.412999849351600E+001  3.497300945630600E+001 
 3.583684278987600E+001  3.672201280678600E+001  3.762904652311400E+001  3.855848397223500E+001 
 3.951087852634900E+001  4.048679722595000E+001  4.148682111743100E+001  4.251154559903200E+001 
 4.356158077532800E+001  4.463755182047800E+001  4.574009935044400E+001  4.686987980440000E+001 
 4.802756583556900E+001  4.921384671170700E+001  5.042942872548600E+001  5.167503561500600E+001 
 5.295140899469600E+001  5.425930879686500E+001  5.559951372414800E+001  5.697282171313400E+001 
 5.838005040944900E+001  5.982203765456200E+001  6.129964198463000E+001  6.281374314165000E+001 
 6.436524259724899E+001  6.595506408940101E+001  6.758415417240900E+001  6.925348278046800E+001 
 7.096404380514500E+001  7.271685568713200E+001  7.451296202260500E+001  7.635343218456300E+001 
 7.823936195952200E+001
    </PP_R>
    <PP_RAB type="real" size="573" columns="4">
 1.657601007033645E-006  1.698543751907356E-006  1.740497782579480E-006  1.783488077809197E-006 
 1.827540233331080E-006  1.872680477094361E-006  1.918935684878589E-006  1.966333396295099E-006 
 2.014901831183571E-006  2.064669906413808E-006  2.115667253102231E-006  2.167924234253867E-006 
 2.221471962839917E-006  2.276342320322071E-006  2.332567975634037E-006  2.390182404632199E-006 
 2.449219910026670E-006  2.509715641804362E-006  2.571705618156912E-006  2.635226746925306E-006 
 2.700316847574468E-006  2.767014673709470E-006  2.835359936150021E-006  2.905393326572981E-006 
 2.977156541739253E-006  3.050692308320175E-006  3.126044408335874E-006  3.203257705221659E-006 
 3.282378170540776E-006  3.363452911353027E-006  3.446530198263418E-006  3.531659494160588E-006 
 3.618891483666253E-006  3.708278103312743E-006  3.799872572464733E-006  3.893729425004450E-006 
 3.989904541802062E-006  4.088455183984687E-006  4.189440027029127E-006  4.292919195696657E-006 
 4.398954299830337E-006  4.507608471036340E-006  4.618946400270761E-006  4.733034376357517E-006 
 4.849940325453460E-006  4.969733851492163E-006  5.092486277624198E-006  5.218270688681489E-006 
 5.347161974691810E-006  5.479236875466665E-006  5.614574026290799E-006  5.753254004740217E-006 
 5.895359378657241E-006  6.040974755310180E-006  6.190186831766166E-006  6.343084446510823E-006 
 6.499758632339656E-006  6.660302670558496E-006  6.824812146521306E-006  6.993385006540470E-006 
 7.166121616201797E-006  7.343124820122034E-006  7.524500003179173E-006  7.710355153257717E-006 
 7.900800925543134E-006  8.095950708403979E-006  8.295920690901503E-006  8.500829931966753E-006 
 8.710800431286384E-006  8.925957201939176E-006  9.146428344827153E-006  9.372345124944263E-006 
 9.603842049530437E-006  9.841056948153966E-006  1.008413105477320E-005  1.033320909182613E-005 
 1.058843935639418E-005  1.084997380849713E-005  1.111796816156712E-005  1.139258197515778E-005 
 1.167397874994417E-005  1.196232602506786E-005  1.225779547788709E-005  1.256056302619078E-005 
 1.287080893293780E-005  1.318871791358125E-005  1.351447924604663E-005  1.384828688342417E-005 
 1.419033956944467E-005  1.454084095680994E-005  1.489999972844320E-005  1.526802972173568E-005 
 1.564515005586259E-005  1.603158526224246E-005  1.642756541821975E-005  1.683332628404967E-005 
 1.724910944326592E-005  1.767516244651456E-005  1.811173895894348E-005  1.855909891122918E-005 
 1.901750865433669E-005  1.948724111809884E-005  1.996857597371583E-005  2.046179980026669E-005 
 2.096720625533324E-005  2.148509624983995E-005  2.201577812721083E-005  2.255956784695298E-005 
 2.311678917277285E-005  2.368777386534025E-005  2.427286187981423E-005  2.487240156824619E-005 
 2.548674988698216E-005  2.611627260919088E-005  2.676134454263671E-005  2.742234975284029E-005 
 2.809968179173474E-005  2.879374393198994E-005  2.950494940710991E-005  3.023372165746661E-005 
 3.098049458240689E-005  3.174571279859114E-005  3.252983190471748E-005  3.333331875276306E-005 
 3.415665172595735E-005  3.500032102358736E-005  3.586482895286913E-005  3.675069022800487E-005 
 3.765843227663828E-005  3.858859555387132E-005  3.954173386405233E-005  4.051841469049419E-005 
 4.151921953334926E-005  4.254474425582186E-005  4.359559943894013E-005  4.467241074508270E-005 
 4.577581929048679E-005  4.690648202696257E-005  4.806507213302816E-005  4.925227941471441E-005 
 5.046881071625646E-005  5.171539034094785E-005  5.299276048236950E-005  5.430168166628388E-005 
 5.564293320344075E-005  5.701731365356543E-005  5.842564130081011E-005  5.986875464093906E-005 
 6.134751288056988E-005  6.286279644871948E-005  6.441550752100402E-005  6.600657055677310E-005 
 6.763693284952480E-005  6.930756509090917E-005  7.101946194865409E-005  7.277364265878474E-005 
 7.457115163245852E-005  7.641305907777909E-005  7.830046163699944E-005  8.023448303943352E-005 
 8.221627477050852E-005  8.424701675734069E-005  8.632791807124705E-005  8.846021764760558E-005 
 9.064518502350274E-005  9.288412109358354E-005  9.517835888459408E-005  9.752926434904410E-005 
 9.993823717846490E-005  1.024067116367729E-004  1.049361574142021E-004  1.075280805023306E-004 
 1.101840240907397E-004  1.129055694857817E-004  1.156943370520794E-004  1.185519871772651E-004 
 1.214802212605453E-004  1.244807827256806E-004  1.275554580590042E-004  1.307060778730610E-004 
 1.339345179965266E-004  1.372427005910411E-004  1.406325952956397E-004  1.441062203994402E-004 
 1.476656440433060E-004  1.513129854511765E-004  1.550504161918219E-004  1.588801614717589E-004 
 1.628045014601110E-004  1.668257726461768E-004  1.709463692305357E-004  1.751687445505309E-004 
 1.794954125409295E-004  1.839289492306895E-004  1.884719942766883E-004  1.931272525353215E-004 
 1.978974956729443E-004  2.027855638160652E-004  2.077943672423239E-004  2.129268881132079E-004 
 2.181861822496056E-004  2.235753809511688E-004  2.290976928606643E-004  2.347564058743218E-004 
 2.405548890994171E-004  2.464965948601622E-004  2.525850607532254E-004  2.588239117538169E-004 
 2.652168623741445E-004  2.717677188747728E-004  2.784803815309826E-004  2.853588469548098E-004 
 2.924072104745961E-004  2.996296685733189E-004  3.070305213870653E-004  3.146141752653379E-004 
 3.223851453943834E-004  3.303480584856212E-004  3.385076555302198E-004  3.468687946218225E-004 
 3.554364538489823E-004  3.642157342590412E-004  3.732118628952576E-004  3.824301959087669E-004 
 3.918762217477206E-004  4.015555644248706E-004  4.114739868661597E-004  4.216373943417621E-004 
 4.320518379820080E-004  4.427235183801742E-004  4.536587892841622E-004  4.648641613794814E-004 
 4.763463061655365E-004  4.881120599278324E-004  5.001684278080448E-004  5.125225879749140E-004 
 5.251818958978839E-004  5.381538887265649E-004  5.514462897781171E-004  5.650670131356289E-004 
 5.790241683600758E-004  5.933260653185711E-004  6.079812191319545E-004  6.229983552445037E-004 
 6.383864146190354E-004  6.541545590601321E-004  6.703121766689313E-004  6.868688874326514E-004 
 7.038345489522219E-004  7.212192623113581E-004  7.390333780904265E-004  7.572875025292699E-004 
 7.759925038417517E-004  7.951595186866309E-004  8.147999587982068E-004  8.349255177805153E-004 
 8.555481780696918E-004  8.766802180680090E-004  8.983342194543025E-004  9.205230746748100E-004 
 9.432599946192779E-004  9.665585164863864E-004  9.904325118435936E-004  1.014896194886131E-003 
 1.039964130899812E-003  1.065651244933044E-003  1.091972830682876E-003  1.118944559600745E-003 
 1.146582490222896E-003  1.174903077731401E-003  1.203923183751350E-003  1.233660086390015E-003 
 1.264131490523864E-003  1.295355538339802E-003  1.327350820136780E-003  1.360136385394172E-003 
 1.393731754113399E-003  1.428156928439988E-003  1.463432404572477E-003  1.499579184965400E-003 
 1.536618790834043E-003  1.574573274967649E-003  1.613465234859361E-003  1.653317826160376E-003 
 1.694154776466531E-003  1.736000399445261E-003  1.778879609311554E-003  1.822817935661553E-003 
 1.867841538672413E-003  1.913977224677603E-003  1.961252462127142E-003  2.009695397941695E-003 
 2.059334874270853E-003  2.110200445665337E-003  2.162322396673268E-003  2.215731759871099E-003 
 2.270460334339912E-003  2.326540704598104E-003  2.384006260001678E-003  2.442891214623743E-003 
 2.503230627624924E-003  2.565060424127248E-003  2.628417416603281E-003  2.693339326793225E-003 
 2.759864808165019E-003  2.828033468926843E-003  2.897885895609370E-003  2.969463677230921E-003 
 3.042809430058471E-003  3.117966822980851E-003  3.194980603508534E-003  3.273896624415134E-003 
 3.354761871038203E-003  3.437624489252966E-003  3.522533814137305E-003  3.609540399346546E-003 
 3.698696047210468E-003  3.790053839576472E-003  3.883668169414022E-003  3.979594773198662E-003 
 4.077890764096593E-003  4.178614665969824E-003  4.281826448219203E-003  4.387587561490242E-003 
 4.495960974259035E-003  4.607011210323177E-003  4.720804387218158E-003  4.837408255582684E-003 
 4.956892239495346E-003  5.079327477810960E-003  5.204786866512906E-003  5.333345102115901E-003 
 5.465078726137958E-003  5.600066170673766E-003  5.738387805089240E-003  5.880125983875066E-003 
 6.025365095676812E-003  6.174191613539906E-003  6.326694146394371E-003  6.482963491810313E-003 
 6.643092690058058E-003  6.807177079502499E-003  6.975314353366238E-003  7.147604617894301E-003 
 7.324150451956215E-003  7.505056968119670E-003  7.690431875232067E-003  7.880385542550503E-003 
 8.075031065451405E-003  8.274484332768100E-003  8.478864095787374E-003  8.688292038953490E-003 
 8.902892852315615E-003  9.122794305767640E-003  9.348127325120199E-003  9.579026070050744E-003 
 9.815628013980957E-003  1.005807402592619E-002  1.030650845436663E-002  1.056107921318935E-002 
 1.082193786975528E-002  1.108923973513829E-002  1.136314395659613E-002  1.164381361232397E-002 
 1.193141580854840E-002  1.222612177901965E-002  1.252810698696138E-002  1.283755122953936E-002 
 1.315463874490880E-002  1.347955832190825E-002  1.381250341245937E-002  1.415367224674708E-002 
 1.450326795124160E-002  1.486149866963739E-002  1.522857768677733E-002  1.560472355564068E-002 
 1.599016022746521E-002  1.638511718508358E-002  1.678982957955516E-002  1.720453837017009E-002 
 1.762949046791334E-002  1.806493888247085E-002  1.851114287286780E-002  1.896836810182749E-002 
 1.943688679394282E-002  1.991697789775302E-002  2.040892725182763E-002  2.091302775494786E-002 
 2.142957954049505E-002  2.195889015514515E-002  2.250127474197725E-002  2.305705622810423E-002 
 2.362656551693836E-002  2.421014168520661E-002  2.480813218483054E-002  2.542089304979675E-002 
 2.604878910812755E-002  2.669219419909723E-002  2.735149139581470E-002  2.802707323329168E-002 
 2.871934194215454E-002  2.942870968812432E-002  3.015559881742105E-002  3.090044210821190E-002 
 3.166368302828616E-002  3.244577599908401E-002  3.324718666626195E-002  3.406839217691703E-002 
 3.490988146368689E-002  3.577215553584046E-002  3.665572777757629E-002  3.756112425368242E-002 
 3.848888402274788E-002  3.943955945810918E-002  4.041371657672405E-002  4.141193537617055E-002 
 4.243481017996157E-002  4.348294999140662E-002  4.455697885619419E-002  4.565753623394338E-002 
 4.678527737892032E-002  4.794087373018006E-002  4.912501331131491E-002  5.033840114010400E-002 
 5.158175964826465E-002  5.285582911157842E-002  5.416136809063354E-002  5.549915388247176E-002 
 5.686998298336880E-002  5.827467156305824E-002  5.971405595066522E-002  6.118899313264695E-002 
 6.270036126302372E-002  6.424906018621966E-002  6.583601197282081E-002  6.746216146854811E-002 
 6.912847685682133E-002  7.083595023518677E-002  7.258559820599460E-002  7.437846248168203E-002 
 7.621561050497935E-002  7.809813608445380E-002  8.002716004574011E-002  8.200383089887005E-002 
 8.402932552207198E-002  8.610484986246730E-002  8.823163965406877E-002  9.041096115352498E-002 
 9.264411189401586E-002  9.493242145779943E-002  9.727725226780758E-002  9.968000039882276E-002 
 1.021420964086723E-001  1.046650061899675E-001  1.072502318428582E-001  1.098993125693767E-001 
 1.126138255898410E-001  1.153953870819094E-001  1.182456531428333E-001  1.211663207754621E-001 
 1.241591288986153E-001  1.272258593824113E-001  1.303683381091574E-001  1.335884360604525E-001 
 1.368880704311448E-001  1.402692057707945E-001  1.437338551533340E-001  1.472840813756220E-001 
 1.509219981855998E-001  1.546497715407832E-001  1.584696208978410E-001  1.623838205340171E-001 
 1.663947009012069E-001  1.705046500134670E-001  1.747161148688008E-001  1.790316029060596E-001 
 1.834536834978392E-001  1.879849894802359E-001  1.926282187203977E-001  1.973861357227909E-001 
 2.022615732751433E-001  2.072574341350396E-001  2.123766927581757E-001  2.176223970693023E-001 
 2.229976702769149E-001  2.285057127327551E-001  2.341498038372534E-001  2.399333039920329E-001 
 2.458596566006290E-001  2.519323901186656E-001  2.581551201546098E-001  2.645315516224127E-001 
 2.710654809474837E-001  2.777607983269010E-001  2.846214900455705E-001  2.916516408497009E-001 
 2.988554363786908E-001  3.062371656572367E-001  3.138012236489753E-001  3.215521138731034E-001 
 3.294944510857792E-001  3.376329640275980E-001  3.459724982390711E-001  3.545180189455706E-001 
 3.632746140135221E-001  3.722474969796752E-001  3.814420101550617E-001  3.908636278058868E-001 
 4.005179594126957E-001  4.104107530101805E-001  4.205478986095337E-001  4.309354317051987E-001 
 4.415795368683154E-001  4.524865514289557E-001  4.636629692492484E-001  4.751154445897124E-001 
 4.868507960710906E-001  4.988760107340274E-001  5.111982481991765E-001  5.238248449296899E-001 
 5.367633185994570E-001  5.500213725688485E-001  5.636069004713097E-001  5.775279909129496E-001 
 5.917929322884928E-001  6.064102177160351E-001  6.213885500936017E-001  6.367368472809285E-001 
 6.524642474087539E-001  6.685801143197497E-001  6.850940431434578E-001  7.020158660091063E-001 
 7.193556578995347E-001  7.371237426496371E-001  7.553306990930837E-001  7.739873673606884E-001 
 7.931048553344960E-001  8.126945452612494E-001  8.327681005292146E-001  8.533374726122900E-001 
 8.744149081857950E-001  8.960129564179856E-001  9.181444764415193E-001  9.408226450096270E-001 
 9.640609643413598E-001  9.878732701605957E-001  1.012273739933563E+000  1.037276901309933E+000 
 1.062897640772286E+000  1.089151212499347E+000  1.116053247448086E+000  1.143619762660054E+000 
 1.171867170797766E+000  1.200812289916457E+000  1.230472353477389E+000  1.260865020608293E+000 
 1.292008386617302E+000  1.323920993766750E+000  1.356621842312799E+000  1.390130401817914E+000 
 1.424466622742831E+000  1.459650948324569E+000  1.495704326748194E+000  1.532648223618865E+000 
 1.570504634742257E+000  1.609296099220390E+000  1.649045712871129E+000  1.689777141979058E+000 