<UPF version="2.0.1">
  <PP_INFO>
    Generated using FHI98PP, converted with fhi2upf.x v.5.0.1
    Author: Abinit web site
    Generation date: 10-Jul-2012, PG
    Pseudopotential type: SL
    Element:  V
    Functional: SLA-PW

    Suggested minimum cutoff for wavefunctions:   0. Ry
    Suggested minimum cutoff for charge density:   0. Ry
    The Pseudo was generated with a Non-Relativistic Calculation
    L component and cutoff radius for Local Potential:  1   0.0000

    Valence configuration: 
    nl pn  l   occ       Rcut    Rcut US       E pseu
    4s  4  0  2.00      0.000      0.000     0.000000
    4p  4  1  0.00      0.000      0.000     0.000000
    3d  3  2  3.00      0.000      0.000     0.000000
    4f  4  3  0.00      0.000      0.000     0.000000

    Generation configuration: not available.
    Comment:
    vanadium, fhi98PP : Trouiller-Martins-type, LDA Ceperley/Alder Perdew/Wang (1992
  </PP_INFO>
  <!--                               -->
  <!-- END OF HUMAN READABLE SECTION -->
  <!--                               -->
  <PP_HEADER generated="Generated using FHI98PP, converted with fhi2upf.x v.5.0.1"
             author="Abinit web site"
             date="10-Jul-2012, PG"
             comment="vanadium, fhi98PP : Trouiller-Martins-type, LDA Ceperley/Alder Perdew/Wang (1992"
             element=" V"
             pseudo_type="SL"
             relativistic="no"
             is_ultrasoft="F"
             is_paw="F"
             is_coulomb="F"
             has_so="F"
             has_wfc="F"
             has_gipaw="F"
             paw_as_gipaw="F"
             core_correction="F"
             functional="SLA-PW"
             z_valence="5.000000000000000E+000"
             total_psenergy="0.000000000000000E+000"
             wfc_cutoff="0.000000000000000E+000"
             rho_cutoff="0.000000000000000E+000"
             l_max="3"
             l_max_rho="0"
             l_local="1"
             mesh_size="517"
             number_of_wfc="4"
             number_of_proj="3"/>
  <PP_MESH dx="2.439988682353512E-002" mesh="517" xmin="-5.075173815233836E+000" rmax="7.981197611154300E+001"
zmesh="2.300000000000000E+001">
    <PP_R type="real" size="517" columns="4">
 2.717391304347800E-004  2.784510869565200E-004  2.853288288043500E-004  2.923764508758200E-004 
 2.995981492124500E-004  3.069982234980000E-004  3.145810796184000E-004  3.223512322849700E-004 
 3.303133077224100E-004  3.384720464231500E-004  3.468323059698000E-004  3.553990639272600E-004 
 3.641774208062600E-004  3.731726031001800E-004  3.823899663967500E-004  3.918349985667500E-004 
 4.015133230313500E-004  4.114307021102200E-004  4.215930404523500E-004  4.320063885515200E-004 
 4.426769463487400E-004  4.536110669235500E-004  4.648152602765700E-004  4.762961972054000E-004 
 4.880607132763700E-004  5.001158128943000E-004  5.124686734727900E-004  5.251266497075600E-004 
 5.380972779553400E-004  5.513882807208400E-004  5.650075712546400E-004  5.789632582646300E-004 
 5.932636507437700E-004  6.079172629171400E-004  6.229328193111901E-004  6.383192599481800E-004 
 6.540857456689000E-004  6.702416635869200E-004  6.867966326775200E-004  7.037605095046499E-004 
 7.211433940894200E-004  7.389556359234300E-004  7.572078401307400E-004  7.759108737819600E-004 
 7.950758723643800E-004  8.147142464117800E-004  8.348376882981500E-004  8.554581791991100E-004 
 8.765879962253299E-004  8.982397197321000E-004  9.204262408094800E-004  9.431607689574700E-004 
 9.664568399507200E-004  9.903283238975099E-004  1.014789433497800E-003  1.039854732505200E-003 
 1.065539144398000E-003  1.091857961264700E-003  1.118826852907900E-003  1.146461876174700E-003 
 1.174779484516300E-003  1.203796537783800E-003  1.233530312267100E-003  1.263998510980100E-003 
 1.295219274201300E-003  1.327211190274000E-003  1.359993306673800E-003  1.393585141348700E-003 
 1.428006694340000E-003  1.463278459690200E-003  1.499421437644500E-003  1.536457147154300E-003 
 1.574407638689000E-003  1.613295507364700E-003  1.653143906396600E-003  1.693976560884600E-003 
 1.735817781938400E-003  1.778692481152300E-003  1.822626185436800E-003  1.867645052217000E-003 
 1.913775885006800E-003  1.961046149366500E-003  2.009483989255800E-003  2.059118243790400E-003 
 2.109978464412100E-003  2.162094932483000E-003  2.215498677315400E-003  2.270221494645100E-003 
 2.326295965562800E-003  2.383755475912200E-003  2.442634236167200E-003  2.502967301800600E-003 
 2.564790594155000E-003  2.628140921830700E-003  2.693056002599900E-003  2.759574485864100E-003 
 2.827735975664900E-003  2.897581054263900E-003  2.969151306304200E-003  3.042489343569900E-003 
 3.117638830356100E-003  3.194644509465900E-003  3.273552228849700E-003  3.354408968902300E-003 
 3.437262870434100E-003  3.522163263333900E-003  3.609160695938200E-003  3.698306965127900E-003 
 3.789655147166500E-003  3.883259629301600E-003  3.979176142145300E-003  4.077461792856300E-003 
 4.178175099139800E-003  4.281376024088600E-003  4.387126011883600E-003  4.495488024377100E-003 
 4.606526578579200E-003  4.720307785070100E-003  4.836899387361400E-003  4.956370802229200E-003 
 5.078793161044300E-003  5.204239352122000E-003  5.332784064119500E-003  5.464503830503200E-003 
 5.599477075116600E-003  5.737784158872000E-003  5.879507427596200E-003  6.024731261057800E-003 
 6.173542123205900E-003  6.326028613649100E-003  6.482281520406200E-003  6.642393873960300E-003 
 6.806461002647100E-003  6.974580589412500E-003  7.146852729971000E-003  7.323379992401200E-003 
 7.504267478213500E-003  7.689622884925400E-003  7.879556570183100E-003  8.074181617466600E-003 
 8.273613903417999E-003  8.477972166832401E-003  8.687378079353200E-003  8.901956317913200E-003 
 9.121834638965700E-003  9.347143954548101E-003  9.578018410225500E-003  9.814595464958100E-003 
 1.005701597294300E-002  1.030542426747400E-002  1.055996824688100E-002  1.082079946257900E-002 
 1.108807320930400E-002  1.136194861757400E-002  1.164258874842800E-002  1.193016069051500E-002 
 1.222483565957000E-002  1.252678910036200E-002  1.283620079114100E-002  1.315325495068200E-002 
 1.347814034796400E-002  1.381105041455800E-002  1.415218335979800E-002  1.450174228878500E-002 
 1.485993532331800E-002  1.522697572580400E-002  1.560308202623100E-002  1.598847815227900E-002 
 1.638339356264000E-002  1.678806338363800E-002  1.720272854921300E-002  1.762763594437900E-002 
 1.806303855220500E-002  1.850919560444500E-002  1.896637273587400E-002  1.943484214245000E-002 
 1.991488274336900E-002  2.040678034713000E-002  2.091082782170400E-002  2.142732526890000E-002 
 2.195658020304200E-002  2.249890773405700E-002  2.305463075508900E-002  2.362408013473900E-002 
 2.420759491406700E-002  2.480552250844500E-002  2.541821891440300E-002  2.604604892158900E-002 
 2.668938632995200E-002  2.734861417230200E-002  2.802412494235800E-002  2.871632082843400E-002 
 2.942561395289700E-002  3.015242661753300E-002  3.089719155498600E-002  3.166035218639400E-002 
 3.244236288539800E-002  3.324368924866800E-002  3.406480837311000E-002  3.490620913992600E-002 
 3.576839250568200E-002  3.665187180057200E-002  3.755717303404600E-002  3.848483520798700E-002 
 3.943541063762500E-002  4.040946528037400E-002  4.140757907279900E-002  4.243034627589700E-002 
 4.347837582891200E-002  4.455229171188600E-002  4.565273331717000E-002  4.678035583010400E-002 
 4.793583061910700E-002  4.911984563539900E-002  5.033310582259400E-002  5.157633353641200E-002 
 5.285026897476100E-002  5.415567061843800E-002  5.549331568271300E-002  5.686400058007600E-002 
 5.826854139440400E-002  5.970777436684600E-002  6.118255639370700E-002  6.269376553663100E-002 
 6.424230154538600E-002  6.582908639355700E-002  6.745506482747800E-002  6.912120492871700E-002 
 7.082849869045600E-002  7.257796260811000E-002  7.437063828453000E-002  7.620759305015801E-002 
 7.808992059849700E-002  8.001874163728000E-002  8.199520455572100E-002  8.402048610824700E-002 
 8.609579211512100E-002  8.822235818036400E-002  9.040145042741900E-002  9.263436625297700E-002 
 9.492243509942500E-002  9.726701924638100E-002  9.966951462176700E-002  1.021313516329200E-001 
 1.046539960182600E-001  1.072389497199100E-001  1.098877517779900E-001  1.126019792469100E-001 
 1.153832481343100E-001  1.182332143632200E-001  1.211535747579900E-001  1.241460680545200E-001 
 1.272124759354600E-001  1.303546240910700E-001  1.335743833061200E-001  1.368736705737800E-001 
 1.402544502369500E-001  1.437187351578000E-001  1.472685879162000E-001  1.509061220377300E-001 
 1.546335032520600E-001  1.584529507823900E-001  1.623667386667200E-001  1.663771971117800E-001 
 1.704867138804400E-001  1.746977357132900E-001  1.790127697854100E-001  1.834343851991100E-001 
 1.879652145135300E-001  1.926079553120100E-001  1.973653718082200E-001  2.022402964918800E-001 
 2.072356318152300E-001  2.123543519210700E-001  2.175995044135200E-001  2.229742121725300E-001 
 2.284816752131900E-001  2.341251725909600E-001  2.399080643539500E-001  2.458337935435000E-001 
 2.519058882440200E-001  2.581279636836500E-001  2.645037243866400E-001  2.710369663789900E-001 
 2.777315794485500E-001  2.845915494609300E-001  2.916209607326100E-001  2.988239984627100E-001 
 3.062049512247300E-001  3.137682135199900E-001  3.215182883939300E-001  3.294597901172600E-001 
 3.375974469331500E-001  3.459361038724000E-001  3.544807256380500E-001  3.632363995613100E-001 
 3.722083386304800E-001  3.814018845946500E-001  3.908225111441400E-001  4.004758271694000E-001 
 4.103675801004800E-001  4.205036593289600E-001  4.308900997143900E-001  4.415330851773300E-001 
 4.524389523812100E-001  4.636141945050300E-001  4.750654651093000E-001  4.867995820975000E-001 
 4.988235317753100E-001  5.111444730101600E-001  5.237697414935100E-001  5.367068541084000E-001 
 5.499635134048800E-001  5.635476121859800E-001  5.774672382069800E-001  5.917306789906900E-001 
 6.063464267617600E-001  6.213231835027700E-001  6.366698661352900E-001  6.523956118288300E-001 
 6.685097834410000E-001  6.850219750920000E-001  7.019420178767700E-001  7.192799857183300E-001 
 7.370462013655700E-001  7.552512425393000E-001  7.739059482300200E-001  7.930214251513000E-001 
 8.126090543525401E-001  8.326804979950500E-001  8.532477062955200E-001  8.743229246410200E-001 
 8.959187008796600E-001  9.180478927913800E-001  9.407236757433300E-001  9.639595505341900E-001 
 9.877693514323800E-001  1.012167254412800E+000  1.037167785596800E+000  1.062785829901000E+000 
 1.089036639899600E+000  1.115935844905100E+000  1.143499460274200E+000  1.171743896943000E+000 
 1.200685971197500E+000  1.230342914686100E+000  1.260732384678800E+000  1.291872474580400E+000 
 1.323781724702500E+000  1.356479133302700E+000  1.389984167895200E+000  1.424316776842300E+000 
 1.459497401230300E+000  1.495546987040700E+000  1.532486997620600E+000  1.570339426461800E+000 
 1.609126810295400E+000  1.648872242509700E+000  1.689599386899700E+000  1.731332491756100E+000 
 1.774096404302500E+000  1.817916585488700E+000  1.862819125150300E+000  1.908830757541500E+000 
 1.955978877252800E+000  2.004291555520900E+000  2.053797556942300E+000  2.104526356598800E+000 
 2.156508157606800E+000  2.209773909099700E+000  2.264355324654400E+000  2.320284901173400E+000 
 2.377595938232400E+000  2.436322557906700E+000  2.496499725087000E+000  2.558163268296700E+000 
 2.621349901023600E+000  2.686097243578900E+000  2.752443845495300E+000  2.820429208479000E+000 
 2.890093809928400E+000  2.961479127033700E+000  3.034627661471400E+000  3.109582964709700E+000 
 3.186389663938100E+000  3.265093488637300E+000  3.345741297806700E+000  3.428381107862500E+000 
 3.513062121226700E+000  3.599834755621000E+000  3.688750674084800E+000  3.779862815734700E+000 
 3.873225427283400E+000  3.968894095337300E+000  4.066925779492100E+000  4.167378846245600E+000 
 4.270313103747800E+000  4.375789837410400E+000  4.483871846394400E+000  4.594623481000400E+000 
 4.708110680981100E+000  4.824401014801300E+000  4.943563719866900E+000  5.065669743747600E+000 
 5.190791786418200E+000  5.319004343542700E+000  5.450383750828200E+000  5.585008229473700E+000 
 5.722957932741700E+000  5.864314993680400E+000  6.009163574024300E+000  6.157589914302700E+000 
 6.309682385186000E+000  6.465531540100100E+000  6.625230169140600E+000  6.788873354318300E+000 
 6.956558526170000E+000  7.128385521766400E+000  7.304456644154000E+000  7.484876723264600E+000 
 7.669753178329300E+000  7.859196081834000E+000  8.053318225055300E+000  8.252235185214200E+000 
 8.456065394289000E+000  8.664930209527901E+000  8.878953985703200E+000  9.098264149150101E+000 
 9.322991273634100E+000  9.553269158092901E+000  9.789234906297800E+000  1.003102900848300E+001 
 1.027879542499300E+001  1.053268167199000E+001  1.079283890928800E+001  1.105942203034800E+001 
 1.133258975449700E+001  1.161250472143300E+001  1.189933358805300E+001  1.219324712767800E+001 
 1.249442033173100E+001  1.280303251392500E+001  1.311926741701900E+001  1.344331332221900E+001 
 1.377536316127800E+001  1.411561463136200E+001  1.446427031275600E+001  1.482153778948200E+001 
 1.518762977288200E+001  1.556276422827200E+001  1.594716450471000E+001  1.634105946797700E+001 
 1.674468363683600E+001  1.715827732266500E+001  1.758208677253500E+001  1.801636431581700E+001 
 1.846136851441800E+001  1.891736431672400E+001  1.938462321534700E+001  1.986342340876600E+001 
 2.035404996696200E+001  2.085679500114600E+001  2.137195783767500E+001  2.189984519626500E+001 
 2.244077137261300E+001  2.299505842551700E+001  2.356303636862700E+001  2.414504336693200E+001 
 2.474142593809500E+001  2.535253915876600E+001  2.597874687598800E+001  2.662042192382400E+001 
 2.727794634534300E+001  2.795171162007300E+001  2.864211889708900E+001  2.934957923384700E+001 
 3.007451384092300E+001  3.081735433279400E+001  3.157854298481400E+001  3.235853299653800E+001 
 3.315778876155300E+001  3.397678614396300E+001  3.481601276171900E+001  3.567596827693400E+001 
 3.655716469337400E+001  3.746012666130000E+001  3.838539178983400E+001  3.933351096704300E+001 
 4.030504868792900E+001  4.130058339052100E+001  4.232070780026700E+001  4.336602928293400E+001 
 4.443717020622200E+001  4.553476831031600E+001  4.665947708758000E+001  4.781196617164400E+001 
 4.899292173608300E+001  5.020304690296500E+001  5.144306216146800E+001  5.271370579685600E+001 
 5.401573433003800E+001  5.534992296799000E+001  5.671706606530000E+001  5.811797759711300E+001 
 5.955349164376100E+001  6.102446288736200E+001  6.253176712068000E+001  6.407630176856100E+001 
 6.565898642224400E+001  6.728076338687400E+001  6.894259824252900E+001  7.064548041912001E+001 
 7.239042378547200E+001  7.417846725297299E+001  7.601067539412200E+001  7.788813907635701E+001 
 7.981197611154300E+001
    </PP_R>
    <PP_RAB type="real" size="517" columns="4">
 6.630404028134481E-006  6.794175007629424E-006  6.961991130317969E-006  7.133952311236884E-006 
 7.310160933324368E-006  7.490721908377541E-006  7.675742739514451E-006  7.865333585180348E-006 
 8.059607324734333E-006  8.258679625655186E-006  8.462669012408824E-006  8.671696937015467E-006 
 8.885887851359668E-006  9.105369281288384E-006  9.330271902536099E-006  9.560729618528746E-006 
 9.796879640106437E-006  1.003886256721696E-005  1.028682247262740E-005  1.054090698770123E-005 
 1.080126739029739E-005  1.106805869483764E-005  1.134143974460033E-005  1.162157330629193E-005 
 1.190862616695725E-005  1.220276923328119E-005  1.250417763334325E-005  1.281303082088664E-005 
 1.312951268216262E-005  1.345381164541211E-005  1.378612079305367E-005  1.412663797664211E-005 
 1.447556593466525E-005  1.483311241325146E-005  1.519949028985869E-005  1.557491770001829E-005 
 1.595961816720874E-005  1.635382073593875E-005  1.675776010811651E-005  1.717167678278687E-005 
 1.759581719932183E-005  1.803043388414512E-005  1.847578560108353E-005  1.893213750543007E-005 
 1.939976130181433E-005  1.987893540596914E-005  2.036994511049655E-005  2.087308275472571E-005 
 2.138864789876748E-005  2.191694750186715E-005  2.245829610516320E-005  2.301301601896062E-005 
 2.358143751462896E-005  2.416389902124047E-005  2.476074732706564E-005  2.537233778604427E-005 
 2.599903452935765E-005  2.664121068223447E-005  2.729924858608473E-005  2.797354002616041E-005 
 2.866448646480865E-005  2.937249928048814E-005  3.009800001271718E-005  3.084142061303135E-005 
 3.160320370217302E-005  3.238380283361493E-005  3.318368276360601E-005  3.400331972786848E-005 
 3.484320172514651E-005  3.570382880775767E-005  3.658571337930812E-005  3.748938049977657E-005 
 3.841536819812077E-005  3.936422779261635E-005  4.033652421909378E-005  4.133283636730549E-005 
 4.235375742557673E-005  4.339989523398899E-005  4.447187264626946E-005  4.557032790063014E-005 
 4.669591499977668E-005  4.784930410027196E-005  4.903118191154738E-005  5.024225210476217E-005 
 5.148323573175167E-005  5.275487165432401E-005  5.405791698418752E-005  5.539314753369718E-005 
 5.676135827777868E-005  5.816336382723978E-005  5.959999891377184E-005  6.107211888694372E-005 
 6.258060022344939E-005  6.412634104897034E-005  6.571026167287947E-005  6.733330513619916E-005 
 6.899643777306223E-005  7.070064978605874E-005  7.244695583577394E-005  7.423639564491723E-005 
 7.607003461734726E-005  7.794896447239583E-005  7.987430389486382E-005  8.184719920106727E-005 
 8.386882502133152E-005  8.594038499936028E-005  8.806311250884333E-005  9.023827138781241E-005 
 9.246715669108993E-005  9.475109546136199E-005  9.709144751925642E-005  9.948960627298232E-005 
 1.019469995479237E-004  1.044650904367586E-004  1.070453781705468E-004  1.096893990113587E-004 
 1.123987271669389E-004  1.151749757279622E-004  1.180197976284445E-004  1.209348866298664E-004 
 1.239219783296251E-004  1.269828511943645E-004  1.301193276188675E-004  1.333332750110522E-004 
 1.366266069038245E-004  1.400012840943494E-004  1.434593158114814E-004  1.470027609120243E-004 
 1.506337291065507E-004  1.543543822154828E-004  1.581669354562044E-004  1.620736587619743E-004 
 1.660768781333946E-004  1.701789770232899E-004  1.743823977557654E-004  1.786896429803308E-004 
 1.831032771619447E-004  1.876259281078454E-004  1.922602885321102E-004  1.970091176588528E-004 
 2.018752428650258E-004  2.068615613637914E-004  2.119710419294780E-004  2.172067266651355E-004 
 2.225717328137654E-004  2.280692546142642E-004  2.337025652032380E-004  2.394750185637587E-004 
 2.453900515222941E-004  2.514511857948779E-004  2.576620300840210E-004  2.640262822270973E-004 
 2.705477313980894E-004  2.772302603636269E-004  2.840778477946066E-004  2.910945706351536E-004 
 2.982846065298243E-004  3.056522363111261E-004  3.132018465480124E-004  3.209379321577438E-004 
 3.288650990820439E-004  3.369880670293530E-004  3.453116722849882E-004  3.538408705904271E-004 
 3.625807400940110E-004  3.715364843743342E-004  3.807134355383715E-004  3.901170573961715E-004 
 3.997529487138498E-004  4.096268465471013E-004  4.197446296567937E-004  4.301123220093273E-004 
 4.407360963629537E-004  4.516222779431317E-004  4.627773482083078E-004  4.742079487090509E-004 
 4.859208850421762E-004  4.979231309027128E-004  5.102218322360070E-004  5.228243114922342E-004 
 5.357380719860966E-004  5.489708023641498E-004  5.625303811825637E-004  5.764248815977559E-004 
 5.906625761732192E-004  6.052519418047111E-004  6.202016647672729E-004  6.355206458870306E-004 
 6.512180058404341E-004  6.673030905846975E-004  6.837854769221430E-004  7.006749782021139E-004 
 7.179816501637227E-004  7.357157969227531E-004  7.538879771067435E-004  7.725090101412764E-004 
 7.915899826917676E-004  8.111422552642706E-004  8.311774689692956E-004  8.517075524528417E-004 
 8.727447289984226E-004  8.943015238046752E-004  9.163907714426476E-004  9.390256234972825E-004 
 9.622195563976830E-004  9.859863794406975E-004  1.010340243012877E-003  1.035295647015292E-003 
 1.060867449496578E-003  1.087070875499140E-003  1.113921526123979E-003  1.141435387819239E-003 
 1.169628841898360E-003  1.198518674293251E-003  1.228122085548310E-003  1.258456701061352E-003 
 1.289540581577558E-003  1.321392233942533E-003  1.354030622120904E-003  1.387475178487290E-003 
 1.421745815395929E-003  1.456862937036214E-003  1.492847451581006E-003  1.529720783635043E-003 
 1.567504886990834E-003  1.606222257699507E-003  1.645895947464688E-003  1.686549577367073E-003 
 1.728207351928032E-003  1.770894073520648E-003  1.814635157136600E-003  1.859456645517877E-003 
 1.905385224662171E-003  1.952448239711329E-003  2.000673711232204E-003  2.050090351899631E-003 
 2.100727583591560E-003  2.152615554906259E-003  2.205785159112444E-003  2.260268052542540E-003 
 2.316096673440328E-003  2.373304261274309E-003  2.431924876527794E-003  2.491993420977917E-003 
 2.553545658476239E-003  2.616618236240578E-003  2.681248706675676E-003  2.747475549730654E-003 
 2.815338195809034E-003  2.884877049245335E-003  2.956133512361658E-003  3.029150010117177E-003 
 3.103970015366909E-003  3.180638074746573E-003  3.259199835192827E-003  3.339702071122061E-003 
 3.422192712278718E-003  3.506720872271938E-003  3.593336877817112E-003  3.682092298699191E-003 
 3.773039978477014E-003  3.866234065945497E-003  3.961730047374472E-003  4.059584779544426E-003 
 4.159856523599150E-003  4.262604979732126E-003  4.367891322731551E-003  4.475778238403031E-003 
 4.586329960891633E-003  4.699612310925554E-003  4.815692735005497E-003  4.934640345560059E-003 
 5.056525962095406E-003  5.181422153359256E-003  5.309403280547219E-003  5.440545541576639E-003 
 5.574927016453545E-003  5.712627713760051E-003  5.853729618289761E-003  5.998316739861699E-003 
 6.146475163336174E-003  6.298293099870644E-003  6.453860939437542E-003  6.613271304641650E-003 
 6.776619105866273E-003  6.944001597781190E-003  7.115518437246264E-003  7.291271742646358E-003 
 7.471366154689504E-003  7.655908898710559E-003  7.845009848508618E-003  8.038781591766780E-003 
 8.237339497083265E-003  8.440801782661250E-003  8.649289586693025E-003  8.862927039484346E-003 
 9.081841337359746E-003  9.306162818392465E-003  9.536025040006810E-003  9.771564858494971E-003 
 1.001292251049970E-002  1.026024169650899E-002  1.051366966641288E-002  1.077335730717314E-002 
 1.103945923266032E-002  1.131213387570713E-002  1.159154358243699E-002  1.187785470892319E-002 
 1.217123772023364E-002  1.247186729192340E-002  1.277992241403389E-002  1.309558649766054E-002 
 1.341904748415281E-002  1.375049795701138E-002  1.409013525654971E-002  1.443816159738643E-002 
 1.479478418884187E-002  1.516021535830613E-002  1.553467267765633E-002  1.591837909279440E-002 
 1.631156305638637E-002  1.671445866387930E-002  1.712730579287705E-002  1.755035024596121E-002 
 1.798384389703639E-002  1.842804484129319E-002  1.888321754887312E-002  1.934963302233025E-002 
 1.982756895798188E-002  2.031730991124408E-002  2.081914746605162E-002  2.133338040846312E-002 
 2.186031490455232E-002  2.240026468269458E-002  2.295355122035720E-002  2.352050393550002E-002 
 2.410146038270676E-002  2.469676645416060E-002  2.530677658557846E-002  2.593185396724125E-002 
 2.657237076023321E-002  2.722870831801048E-002  2.790125741346397E-002  2.859041847157720E-002 
 2.929660180782535E-002  3.002022787247917E-002  3.076172750092827E-002  3.152154217020201E-002 
 3.230012426180513E-002  3.309793733107289E-002  3.391545638314852E-002  3.475316815581445E-002 
 3.561157140926294E-002  3.649117722307203E-002  3.739250930048178E-002  3.831610428020298E-002 
 3.926251205592383E-002  4.023229610370523E-002  4.122603381746701E-002  4.224431685275789E-002 
 4.328775147902161E-002  4.435695894055169E-002  4.545257582638403E-002  4.657525444929541E-002 
 4.772566323419361E-002  4.890448711607712E-002  5.011242794784505E-002  5.135020491815744E-002 
 5.261855497963616E-002  5.391823328763347E-002  5.525001364983648E-002  5.661468898698833E-002 
 5.801307180496736E-002  5.944599467854907E-002  6.091431074710934E-002  6.241889422256419E-002 
 6.396064090986084E-002  6.554046874033481E-002  6.715931831822111E-002  6.881815348068035E-002 
 7.051796187165239E-002  7.225975552988387E-002  7.404457149147120E-002  7.587347240730949E-002 
 7.774754717577176E-002  7.966791159101158E-002  8.163570900731100E-002  8.365211101979096E-002 
 8.571831816197970E-002  8.783556062058061E-002  9.000509896790801E-002  9.222822491241546E-002 
 9.450626206775342E-002  9.684056674082693E-002  9.923252873932459E-002  1.016835721991870E-001 
 1.041951564325053E-001  1.067687767963889E-001  1.094059655832588E-001  1.121082929331667E-001 
 1.148773677686157E-001  1.177148387524997E-001  1.206223952696866E-001  1.236017684328476E-001 
 1.266547321131398E-001  1.297831039963336E-001  1.329887466650429E-001  1.362735687076705E-001 
 1.396395258547500E-001  1.430886221433618E-001  1.466229111103027E-001  1.502444970147272E-001 
 1.539555360909915E-001  1.577582378324392E-001  1.616548663069011E-001  1.656477415046798E-001 
 1.697392407198463E-001  1.739317999656265E-001  1.782279154247768E-001  1.826301449357687E-001 
 1.871411095156837E-001  1.917634949207203E-001  1.965000532452621E-001  2.013536045604209E-001 
 2.063270385930635E-001  2.114233164463112E-001  2.166454723625341E-001  2.219966155298895E-001 
 2.274799319334776E-001  2.330986862522354E-001  2.388562238026657E-001  2.447559725305829E-001 
 2.508014450520998E-001  2.569962407448786E-001  2.633440478912734E-001  2.698486458742022E-001 
 2.765139074272805E-001  2.833438009407324E-001  2.903423928239833E-001  2.975138499267379E-001 
 3.048624420199125E-001  3.123925443378103E-001  3.201086401829555E-001  3.280153235954655E-001 
 3.361173020882782E-001  3.444193994498692E-001  3.529265586162653E-001  3.616438446141098E-001 
 3.705764475760732E-001  3.797296858311977E-001  3.891090090712205E-001  3.987200015952959E-001 
 4.085683856346989E-001  4.186600247598552E-001  4.290009273714279E-001  4.395972502775116E-001 
 4.504553023593740E-001  4.615815483276474E-001  4.729826125713382E-001  4.846652831018486E-001 
 4.966365155944515E-001  5.089034375296355E-001  5.214733524366344E-001  5.343537442418054E-001 
 5.475522817245840E-001  5.610768230831925E-001  5.749354206133408E-001  5.891363255024882E-001 
 6.036879927423943E-001  6.185990861631327E-001  6.338784835913738E-001  6.495352821360587E-001 
 6.655788036048327E-001  6.820186000538727E-001  6.988644594752081E-001  7.161264116242434E-001 
 7.338147339913618E-001  7.519399579209533E-001  7.705128748816006E-001  7.895445428911541E-001 
 8.090462931005780E-001  8.290297365401534E-001  8.495067710326981E-001  8.704895882772189E-001 
 8.919906811076596E-001  9.140228509310107E-001  9.365992153490039E-001  9.597332159681267E-001 
 9.834386264025404E-001  1.007729560474687E+000  1.032620480618415E+000  1.058126206489699E+000 
 1.084261923789984E+000  1.111043193307604E+000  1.138485960182282E+000  1.166606563398803E+000 
 1.195421745514739E+000  1.224948662628971E+000  1.255204894595901E+000  1.286208455492414E+000 
 1.317977804343068E+000  1.350531856110343E+000  1.383889992956284E+000  1.418072075782307E+000 
 1.453098456054113E+000  1.488989987918652E+000  1.525768040620247E+000  1.563454511223572E+000 
 1.602071837650783E+000  1.641643012040771E+000  1.682191594438159E+000  1.723741726820795E+000 
 1.766318147473262E+000  1.809946205715847E+000  1.854651876997043E+000  1.900461778358874E+000 
 1.947403184284338E+000
    </PP_RAB>
  </PP_MESH>
  <PP_LOCAL type="real" size="517" columns="4">
-5.706353266390200E+000 -5.706353322464600E+000 -5.706353377163200E+000 -5.706353430518000E+000 
-5.706353482560200E+000 -5.706353533319800E+000 -5.706353582826800E+000 -5.706353631109600E+000 
-5.706353678196000E+000 -5.706353724113800E+000 -5.706353768888800E+000 -5.706353812547400E+000 
-5.706353855114200E+000 -5.706353896613600E+000 -5.706353937069400E+000 -5.706353976504400E+000 
-5.706354014941200E+000 -5.706354052401200E+000 -5.706354088905800E+000 -5.706354124475000E+000 
-5.706354159128600E+000 -5.706354192886000E+000 -5.706354225765600E+000 -5.706354257785400E+000 
-5.706354288962800E+000 -5.706354319314600E+000 -5.706354348856800E+000 -5.706354377605000E+000 
-5.706354405574400E+000 -5.706354432779600E+000 -5.706354459234200E+000 -5.706354484951600E+000 
-5.706354509944800E+000 -5.706354534225800E+000 -5.706354557806400E+000 -5.706354580697600E+000 
-5.706354602910000E+000 -5.706354624453800E+000 -5.706354645338000E+000 -5.706354665572000E+000 
-5.706354685163600E+000 -5.706354704120800E+000 -5.706354722450800E+000 -5.706354740160000E+000 
-5.706354757254600E+000 -5.706354773739800E+000 -5.706354789620400E+000 -5.706354804900600E+000 
-5.706354819584000E+000 -5.706354833673400E+000 -5.706354847171200E+000 -5.706354860078800E+000 
-5.706354872397200E+000 -5.706354884126800E+000 -5.706354895267000E+000 -5.706354905816400E+000 
-5.706354915773200E+000 -5.706354925134600E+000 -5.706354933897200E+000 -5.706354942056400E+000 
-5.706354949607000E+000 -5.706354956543000E+000 -5.706354962857600E+000 -5.706354968542400E+000 
-5.706354973589000E+000 -5.706354977987000E+000 -5.706354981725600E+000 -5.706354984792800E+000 
-5.706354987175200E+000 -5.706354988858800E+000 -5.706354989827400E+000 -5.706354990064400E+000 
-5.706354989551600E+000 -5.706354988269200E+000 -5.706354986196000E+000 -5.706354983309200E+000 
-5.706354979585000E+000 -5.706354974997000E+000 -5.706354969517600E+000 -5.706354963117000E+000 
-5.706354955764200E+000 -5.706354947425200E+000 -5.706354938064400E+000 -5.706354927643800E+000 
-5.706354916123200E+000 -5.706354903459800E+000 -5.706354889608400E+000 -5.706354874520400E+000 
-5.706354858145200E+000 -5.706354840428400E+000 -5.706354821312800E+000 -5.706354800737800E+000 
-5.706354778639000E+000 -5.706354754948600E+000 -5.706354729594200E+000 -5.706354702499800E+000 
-5.706354673584600E+000 -5.706354642763400E+000 -5.706354609945600E+000 -5.706354575035600E+000 
-5.706354537932400E+000 -5.706354498528600E+000 -5.706354456710800E+000 -5.706354412359200E+000 