<UPF version="2.0.1">
  <PP_INFO>
    Generated using FHI98PP, converted with fhi2upf.x v.5.0.1
    Author: Abinit web site
    Generation date: 10-Jul-2012, PG
    Pseudopotential type: SL
    Element: Xe
    Functional: SLA-PW

    Suggested minimum cutoff for wavefunctions:   0. Ry
    Suggested minimum cutoff for charge density:   0. Ry
    The Pseudo was generated with a Non-Relativistic Calculation
    L component and cutoff radius for Local Potential:  0   0.0000

    Valence configuration: 
    nl pn  l   occ       Rcut    Rcut US       E pseu
    5s  5  0  2.00      0.000      0.000     0.000000
    5p  5  1  6.00      0.000      0.000     0.000000
    5d  5  2  0.00      0.000      0.000     0.000000
    4f  4  3  0.00      0.000      0.000     0.000000

    Generation configuration: not available.
    Comment:
    xenon, fhi98PP : Trouiller-Martins-type, LDA Ceperley/Alder Perdew/Wang (1992),
  </PP_INFO>
  <!--                               -->
  <!-- END OF HUMAN READABLE SECTION -->
  <!--                               -->
  <PP_HEADER generated="Generated using FHI98PP, converted with fhi2upf.x v.5.0.1"
             author="Abinit web site"
             date="10-Jul-2012, PG"
             comment="xenon, fhi98PP : Trouiller-Martins-type, LDA Ceperley/Alder Perdew/Wang (1992),"
             element="Xe"
             pseudo_type="SL"
             relativistic="no"
             is_ultrasoft="F"
             is_paw="F"
             is_coulomb="F"
             has_so="F"
             has_wfc="F"
             has_gipaw="F"
             paw_as_gipaw="F"
             core_correction="F"
             functional="SLA-PW"
             z_valence="8.000000000000000E+000"
             total_psenergy="0.000000000000000E+000"
             wfc_cutoff="0.000000000000000E+000"
             rho_cutoff="0.000000000000000E+000"
             l_max="3"
             l_max_rho="0"
             l_local="0"
             mesh_size="551"
             number_of_wfc="4"
             number_of_proj="3"/>
  <PP_MESH dx="2.439988682353512E-002" mesh="551" xmin="-5.075173815233834E+000" rmax="7.792757667112700E+001"
zmesh="5.400000000000000E+001">
    <PP_R type="real" size="551" columns="4">
 1.157407407407400E-004  1.185995370370400E-004  1.215289456018500E-004  1.245307105582200E-004 
 1.276066191090100E-004  1.307585026010000E-004  1.339882376152400E-004  1.372977470843400E-004 
 1.406890014373200E-004  1.441640197728200E-004  1.477248710612100E-004  1.513736753764200E-004 
 1.551126051582200E-004  1.589438865056300E-004  1.628698005023200E-004  1.668926845747300E-004 
 1.710149338837200E-004  1.752390027506500E-004  1.795674061185900E-004  1.840027210497200E-004 
 1.885475882596500E-004  1.932047136896600E-004  1.979768701178000E-004  2.028668988097100E-004 
 2.078777112103100E-004  2.130122906772000E-004  2.182736942569300E-004  2.236650545050700E-004 
 2.291895813513500E-004  2.348505640107300E-004  2.406513729417900E-004  2.465954618534500E-004 
 2.526863697612300E-004  2.589277230943400E-004  2.653232378547700E-004  2.718767218297800E-004 
 2.785920768589800E-004  2.854733011573900E-004  2.925244916959800E-004  2.997498466408700E-004 
 3.071536678529000E-004  3.147403634488700E-004  3.225144504260500E-004  3.304805573515800E-004 
 3.386434271181600E-004  3.470079197679800E-004  3.555790153862500E-004  3.643618170662900E-004 
 3.733615539478300E-004  3.825835843303400E-004  3.920333988633000E-004  4.017166238152200E-004 
 4.116390244234600E-004  4.218065083267200E-004  4.322251290823900E-004  4.429010897707200E-004 
 4.538407466880600E-004  4.650506131312500E-004  4.765373632755900E-004  4.883078361485000E-004 
 5.003690397013700E-004  5.127281549819900E-004  5.253925404100500E-004  5.383697361581800E-004 
 5.516674686412800E-004  5.652936551167200E-004  5.792564083981100E-004  5.935640416855400E-004 
 6.082250735151700E-004  6.232482328310000E-004  6.386424641819200E-004  6.544169330472200E-004 
 6.705810312934800E-004  6.871443827664300E-004  7.041168490207600E-004  7.215085351915700E-004 
 7.393297960108101E-004  7.575912419722700E-004  7.763037456489900E-004  7.954784481665200E-004 
 8.151267658362300E-004  8.352603969523900E-004  8.558913287571100E-004  8.770318445774100E-004 
 8.986945311384700E-004  9.208922860575900E-004  9.436383255232200E-004  9.669461921636400E-004 
 9.908297631100800E-004  1.015303258258900E-003  1.040381248737900E-003  1.066078665581700E-003 
 1.092410808621600E-003  1.119393355594500E-003  1.147042371477700E-003  1.175374318053200E-003 
 1.204406063709100E-003  1.234154893482800E-003  1.264638519351800E-003  1.295875090779800E-003 
 1.327883205522000E-003  1.360681920698400E-003  1.394290764139700E-003  1.428729746013900E-003 
 1.464019370740500E-003  1.500180649197800E-003  1.537235111232900E-003  1.575204818480400E-003 
 1.614112377496900E-003  1.653980953221000E-003  1.694834282765600E-003  1.736696689549900E-003 
 1.779593097781800E-003  1.823549047297000E-003  1.868590708765200E-003  1.914744899271700E-003 
 1.962039098283700E-003  2.010501464011400E-003  2.060160850172400E-003  2.111046823171700E-003 
 2.163189679704000E-003  2.216620464792700E-003  2.271370990273100E-003  2.327473853732900E-003 
 2.384962457920100E-003  2.443871030630700E-003  2.504234645087300E-003  2.566089240820900E-003 
 2.629471645069200E-003  2.694419594702400E-003  2.760971758691500E-003  2.829167761131200E-003 
 2.899048204831200E-003  2.970654695490500E-003  3.044029866469100E-003  3.119217404170900E-003 
 3.196262074053900E-003  3.275209747283000E-003  3.356107428040900E-003  3.439003281513600E-003 
 3.523946662566900E-003  3.610988145132300E-003  3.700179552317100E-003  3.791573987259300E-003 
 3.885225864744600E-003  3.981190943603800E-003  4.079526359910900E-003  4.180290661000600E-003 
 4.283543840327400E-003  4.389347373183500E-003  4.497764253301100E-003  4.608859030357600E-003 
 4.722697848407500E-003  4.839348485263100E-003  4.958880392849100E-003  5.081364738552500E-003 
 5.206874447594700E-003  5.335484246450300E-003  5.467270707337600E-003  5.602312293808900E-003 
 5.740689407466000E-003  5.882484435830400E-003  6.027781801395400E-003  6.176668011889800E-003 
 6.329231711783500E-003  6.485563735064600E-003  6.645757159320700E-003  6.809907361155900E-003 
 6.978112072976400E-003  7.150471441179000E-003  7.327088085776100E-003  7.508067161494800E-003 
 7.693516420383700E-003  7.883546275967100E-003  8.078269868983501E-003  8.277803134747399E-003 
 8.482264872175699E-003  8.691776814518401E-003  8.906463701837000E-003  9.126453355272400E-003 
 9.351876753147600E-003  9.582868108950400E-003  9.819564951241500E-003  1.006210820553700E-002 
 1.031064227821400E-002  1.056531514248600E-002  1.082627842650500E-002  1.109368750364000E-002 
 1.136770158498000E-002  1.164848381412900E-002  1.193620136433800E-002  1.223102553803700E-002 
 1.253313186882600E-002  1.284270022598600E-002  1.315991492156800E-002  1.348496482013100E-002 
 1.381804345118800E-002  1.415934912443300E-002  1.450908504780600E-002  1.486745944848700E-002 
 1.523468569686400E-002  1.561098243357700E-002  1.599657369968600E-002  1.639168907006900E-002 
 1.679656379009900E-002  1.721143891571500E-002  1.763656145693300E-002  1.807218452491900E-002 
 1.851856748268500E-002  1.897597609950700E-002  1.944468270916500E-002  1.992496637208100E-002 
 2.041711304147200E-002  2.092141573359600E-002  2.143817470221600E-002  2.196769761736000E-002 
 2.251029974850900E-002  2.306630415229700E-002  2.363604186485900E-002  2.421985209892100E-002 
 2.481808244576500E-002  2.543108908217500E-002  2.605923698250500E-002  2.670290013597300E-002 
 2.736246176933100E-002  2.803831457503400E-002  2.873086094503700E-002  2.944051321037900E-002 
 3.016769388667600E-002  3.091283592567700E-002  3.167638297304100E-002  3.245878963247500E-002 
 3.326052173639700E-002  3.408205662328600E-002  3.492388342188100E-002  3.578650334240200E-002 
 3.667042997495900E-002  3.757618959534000E-002  3.850432147834500E-002  3.945537821886000E-002 
 4.042992606086600E-002  4.142854523457000E-002  4.245183030186400E-002  4.350039051032000E-002 
 4.457485015592400E-002  4.567584895477600E-002  4.680404242395900E-002  4.796010227183100E-002 
 4.914471679794500E-002  5.035859130285400E-002  5.160244850803400E-002  5.287702898618300E-002 
 5.418309160214200E-002  5.552141396471500E-002  5.689279288964300E-002  5.829804487401700E-002 
 5.973800658240500E-002  6.121353534499100E-002  6.272550966801201E-002  6.427482975681199E-002 
 6.586241805180500E-002  6.748921977768500E-002  6.915620350619400E-002  7.086436173279700E-002 
 7.261471146759700E-002  7.440829484084600E-002  7.624617972341501E-002  7.812946036258400E-002 
 8.005925803353900E-002  8.203672170696800E-002  8.406302873313000E-002  8.613938554283800E-002 
 8.826702836574600E-002  9.044722396638000E-002  9.268127039835000E-002  9.497049777718899E-002 
 9.731626907228599E-002  9.971998091837100E-002  1.021830644470500E-001  1.047069861389000E-001 
 1.072932486965300E-001  1.099433919393300E-001  1.126589937202300E-001  1.154416708651200E-001 
 1.182930801354900E-001  1.212149192148400E-001  1.242089277194400E-001  1.272768882341200E-001 
 1.304206273735000E-001  1.336420168696200E-001  1.369429746863000E-001  1.403254661610500E-001 
 1.437915051752300E-001  1.473431553530600E-001  1.509825312902800E-001  1.547117998131500E-001 
 1.585331812685400E-001  1.624489508458700E-001  1.664614399317600E-001  1.705730374980800E-001 
 1.747861915242800E-001  1.791034104549300E-001  1.835272646931700E-001  1.880603881310900E-001 
 1.927054797179200E-001  1.974653050669600E-001  2.023426981021100E-001  2.073405627452300E-001 
 2.124618746450400E-001  2.177096829487700E-001  2.230871121176100E-001  2.285973637869100E-001 
 2.342437186724500E-001  2.400295385236600E-001  2.459582681251900E-001  2.520334373478900E-001 
 2.582586632503800E-001  2.646376522326600E-001  2.711742022428100E-001  2.778722050382100E-001 
 2.847356485026500E-001  2.917686190206700E-001  2.989753039104800E-001  3.063599939170600E-001 
 3.139270857668200E-001  3.216810847852600E-001  3.296266075794500E-001  3.377683847866600E-001 
 3.461112638909000E-001  3.546602121090000E-001  3.634203193480900E-001  3.723968012359900E-001 
 3.815950022265200E-001  3.910203987815100E-001  4.006786026314200E-001  4.105753641164100E-001 
 4.207165756100900E-001  4.311082750276600E-001  4.417566494208400E-001  4.526680386615400E-001 
 4.638489392164800E-001  4.753060080151200E-001  4.870460664131000E-001  4.990761042535000E-001 
 5.114032840285599E-001  5.240349451440700E-001  5.369786082891300E-001  5.502419799138700E-001 
 5.638329568177400E-001  5.777596308511400E-001  5.920302937331600E-001  6.066534419883700E-001 
 6.216377820054800E-001  6.369922352210200E-001  6.527259434309800E-001  6.688482742337200E-001 
 6.853688266072900E-001  7.022974366244999E-001  7.196441833091199E-001  7.374193946368600E-001 
 7.556336536843899E-001  7.742978049303900E-001  7.934229607121700E-001  8.130205078417601E-001 
 8.331021143854500E-001  8.536797366107700E-001  8.747656261050600E-001  8.963723370698500E-001 
 9.185127337954800E-001  9.411999983202300E-001  9.644476382787400E-001  9.882694949442200E-001 
 1.012679751469300E+000  1.037692941330600E+000  1.063323956981500E+000  1.089588058718900E+000 
 1.116500883769300E+000  1.144078455598400E+000  1.172337193451700E+000  1.201293922129900E+000 
 1.230965882006600E+000  1.261370739292100E+000  1.292526596552600E+000  1.324452003487500E+000 
 1.357165967973600E+000  1.390687967382600E+000  1.425037960176900E+000  1.460236397793300E+000 
 1.496304236818800E+000  1.533262951468200E+000  1.571134546369500E+000  1.609941569664800E+000 
 1.649707126435500E+000  1.690454892458500E+000  1.732209128302200E+000  1.774994693771300E+000 
 1.818837062707400E+000  1.863762338156300E+000  1.909797267908700E+000  1.956969260426100E+000 
 2.005306401158600E+000  2.054837469267200E+000  2.105591954758100E+000  2.157600076040700E+000 
 2.210892797918900E+000  2.265501850027500E+000  2.321459745723100E+000  2.378799801442500E+000 
 2.437556156538100E+000  2.497763793604600E+000  2.559458559306700E+000  2.622677185721500E+000 
 2.687457312208900E+000  2.753837507820400E+000  2.821857294263600E+000  2.891557169431900E+000 
 2.962978631516900E+000  3.036164203715300E+000  3.111157459547100E+000  3.188003048797900E+000 
 3.266746724103200E+000  3.347435368188600E+000  3.430117021782800E+000  3.514840912220800E+000 
 3.601657482752700E+000  3.690618422576700E+000  3.781776697614300E+000  3.875186582045400E+000 
 3.970903690621900E+000  4.068985011780300E+000  4.169488941571300E+000  4.272475318428100E+000 
 4.378005458793300E+000  4.486142193625400E+000  4.596949905808000E+000  4.710494568481400E+000 
 4.826843784322900E+000  4.946066825795700E+000  5.068234676392900E+000  5.193420072899800E+000 
 5.321697548700400E+000  5.453143478153300E+000  5.587836122063700E+000  5.725855674278700E+000 
 5.867284309433300E+000  6.012206231876300E+000  6.160707725803700E+000  6.312877206631000E+000 
 6.468805273634800E+000  6.628584763893600E+000  6.792310807561800E+000  6.960080884508600E+000 
 7.131994882355900E+000  7.308155155950100E+000  7.488666588302100E+000  7.673636653033100E+000 
 7.863175478363000E+000  8.057395912678601E+000  8.256413591721801E+000  8.460347007437299E+000 
 8.669317578520999E+000  8.883449722710500E+000  9.102870930861400E+000  9.327711842853700E+000 
 9.558106325372201E+000  9.794191551608900E+000  1.003610808293400E+001  1.028399995258200E+001 
 1.053801475141100E+001  1.079830371577100E+001  1.106502181755000E+001  1.133832785644400E+001 
 1.161838455449800E+001  1.190535865299400E+001  1.219942101172300E+001  1.250074671071200E+001 
 1.280951515446700E+001  1.312591017878200E+001  1.345012016019800E+001  1.378233812815500E+001 
 1.412276187992100E+001  1.447159409835500E+001  1.482904247258400E+001  1.519531982165700E+001 
 1.557064422125200E+001  1.595523913351700E+001  1.634933354011500E+001  1.675316207855500E+001 
 1.716696518189600E+001  1.759098922188900E+001  1.802548665566900E+001  1.847071617606400E+001 
 1.892694286561300E+001  1.939443835439400E+001  1.987348098174700E+001  2.036435596199600E+001 
 2.086735555425800E+001  2.138277923644800E+001  2.191093388358800E+001  2.245213395051300E+001 
 2.300670165909000E+001  2.357496719007000E+001  2.415726887966500E+001  2.475395342099200E+001 
 2.536537607049100E+001  2.599190085943200E+001  2.663390081066000E+001  2.729175816068300E+001 
 2.796586458725200E+001  2.865662144255700E+001  2.936443999218800E+001  3.008974165999500E+001 
 3.083295827899700E+001  3.159453234848900E+001  3.237491729749600E+001  3.317457775474400E+001 
 3.399398982528700E+001  3.483364137397100E+001  3.569403231590800E+001  3.657567491411100E+001 
 3.747909408449000E+001  3.840482770837700E+001  3.935342695277400E+001  4.032545659850700E+001 
 4.132149537649000E+001  4.234213631228900E+001  4.338798707920300E+001  4.445967036005900E+001 
 4.555782421795300E+001  4.668310247613600E+001  4.783617510729700E+001  4.901772863244700E+001 
 5.022846652966800E+001  5.146910965295100E+001  5.274039666137900E+001  5.404308445891500E+001 
 5.537794864505000E+001  5.674578397658300E+001  5.814740484080500E+001  5.958364574037300E+001 
 6.105536179016000E+001  6.256342922637700E+001  6.410874592826799E+001  6.569223195269601E+001 
 6.731483008192799E+001  6.897750638495199E+001  7.068125079265999E+001  7.242707768723901E+001 
 7.421602650611300E+001  7.604916236081399E+001  7.792757667112700E+001
    </PP_R>
    <PP_RAB type="real" size="551" columns="4">
 2.824060974946176E-006  2.893815281027438E-006  2.965292518468696E-006  3.038535243674978E-006 
 3.113587064193798E-006  3.190492664679322E-006  3.269297833496787E-006  3.350049489984245E-006 
 3.432795712386778E-006  3.517585766482687E-006  3.604470134914842E-006  3.693500547247193E-006 
 3.784730010764258E-006  3.878212842030183E-006  3.974004699228351E-006  4.072162615299358E-006 
 4.172745031897109E-006  4.275811834185019E-006  4.381424386489364E-006  4.489645568835671E-006 
 4.600539814385960E-006  4.714173147801211E-006  4.830613224552032E-006  4.949929371198476E-006 
 5.072192626667082E-006  5.197475784545645E-006  5.325853436423999E-006  5.457402016303523E-006 
 5.592199846106336E-006  5.730327182305203E-006  5.871866263708019E-006  6.016901360421553E-006 
 6.165518824023959E-006  6.317807138977537E-006  6.473856975310277E-006  6.633761242600372E-006 
 6.797615145292709E-006  6.965516239381274E-006  7.137564490494051E-006  7.313862333409238E-006 
 7.494514733044457E-006  7.679629246950737E-006  7.869316089350249E-006  8.063688196757360E-006 
 8.262861295217167E-006  8.466953969209068E-006  8.676087732248554E-006  8.890387099235083E-006 
 9.109979660586254E-006  9.334996158202700E-006  9.565570563310322E-006  9.801840156224002E-006 
 1.004394560808283E-005  1.029203106460249E-005  1.054624423189817E-005  1.080673646442594E-005 
 1.107366285509734E-005  1.134718232761812E-005  1.162745773111024E-005  1.191465593706873E-005 
 1.220894793871438E-005  1.251050895280053E-005  1.281951852393482E-005  1.313616063147606E-005 
 1.346062379907334E-005  1.379310120691046E-005  1.413379080672132E-005  1.448289543964726E-005 
 1.484062295700648E-005  1.520718634404467E-005  1.558280384674243E-005  1.596769910175713E-005 
 1.636210126957038E-005  1.676624517092879E-005  1.718037142665071E-005  1.760472660088892E-005 
 1.803956334793107E-005  1.848514056262480E-005  1.894172353452175E-005  1.940958410582444E-005 
 1.988900083323823E-005  2.038025915381934E-005  2.088365155491858E-005  2.139947774832505E-005 
 2.192804484870863E-005  2.246966755647173E-005  2.302466834511676E-005  2.359337765324106E-005 
 2.417613408127607E-005  2.477328459308361E-005  2.538518472253290E-005  2.601219878517883E-005 
 2.665470009517353E-005  2.731307118752301E-005  2.798770404585521E-005  2.867900033578785E-005 
 2.938737164408147E-005  3.011323972369236E-005  3.085703674486695E-005  3.161920555246542E-005 
 3.240019992960983E-005  3.320048486787135E-005  3.402053684410898E-005  3.486084410415724E-005 
 3.572190695353131E-005  3.660423805528376E-005  3.750836273524718E-005  3.843481929480894E-005 
 3.938415933139156E-005  4.035694806687514E-005  4.135376468412796E-005  4.237520267182567E-005 
 4.342187017782019E-005  4.449439037121209E-005  4.559340181338016E-005  4.671955883817064E-005 
 4.787353194147318E-005  4.905600818042983E-005  5.026769158248445E-005  5.150930356457284E-005 
 5.278158336261679E-005  5.408528847167369E-005  5.542119509692453E-005  5.679009861581989E-005 
 5.819281405163058E-005  5.963017655870521E-005  6.110304191970577E-005  6.261228705512112E-005 
 6.415881054538319E-005  6.574353316585394E-005  6.736739843504932E-005  6.903137317639552E-005 
 7.073644809385394E-005  7.248363836177139E-005  7.427398422930678E-005  7.610855163977097E-005 
 7.798843286527279E-005  7.991474715704426E-005  8.188864141182350E-005  8.391129085469774E-005 
 8.598389973880666E-005  8.810770206235514E-005  9.028396230329609E-005  9.251397617218672E-005 
 9.479907138363961E-005  9.714060844681571E-005  9.953998147545416E-005  1.019986190178955E-004 
 1.045179849076396E-004  1.070995791348586E-004  1.097449387394888E-004  1.124556387263533E-004 
 1.152332930028958E-004  1.180795553400658E-004  1.209961203569654E-004  1.239847245297831E-004 
 1.270471472256676E-004  1.301852117621419E-004  1.334007864926662E-004  1.366957859190366E-004 
 1.400721718312373E-004  1.435319544754686E-004  1.470771937510124E-004  1.507100004366608E-004 
 1.544325374474468E-004  1.582470211223999E-004  1.621557225441234E-004  1.661609688909627E-004 
 1.702651448225682E-004  1.744706938996877E-004  1.787801200390094E-004  1.831959890039737E-004 
 1.877209299323713E-004  1.923576369016990E-004  1.971088705331713E-004  2.019774596353408E-004 
 2.069663028883347E-004  2.120783705696756E-004  2.173167063227464E-004  2.226844289689189E-004 
 2.281847343644506E-004  2.338208973032538E-004  2.395962734666448E-004  2.455143014212669E-004 
 2.515785046663779E-004  2.577924937316402E-004  2.641599683268019E-004  2.706847195444819E-004 
 2.773706321172328E-004  2.842216867305283E-004  2.912419623927727E-004  2.984356388638705E-004 
 3.058069991437956E-004  3.133604320226473E-004  3.211004346936103E-004  3.290316154305491E-004 
 3.371586963316779E-004  3.454865161310863E-004  3.540200330795121E-004  3.627643278965807E-004 
 3.717246067956109E-004  3.809062045834737E-004  3.903145878366769E-004  3.999553581562613E-004 
 4.098342555027037E-004  4.199571616136340E-004  4.303301035054869E-004  4.409592570620664E-004 
 4.518509507115117E-004  4.630116691940782E-004  4.744480574231763E-004  4.861669244415196E-004 
 4.981752474752397E-004  5.104801760878693E-004  5.230890364372442E-004  5.360093356372262E-004 
 5.492487662274707E-004  5.628152107532851E-004  5.767167464588976E-004  5.909616500964320E-004 
 6.055584028538297E-004  6.205156954043096E-004  6.358424330808028E-004  6.515477411779018E-004 
 6.676409703849829E-004  6.841317023535048E-004  7.010297554016281E-004  7.183451903600383E-004 
 7.360883165619468E-004  7.542696979810293E-004  7.729001595211553E-004  7.919907934613251E-004 
 8.115529660598167E-004  8.315983243214939E-004  8.521388029322308E-004  8.731866313646702E-004 
 8.947543411593694E-004  9.168547733859941E-004  9.395010862886305E-004  9.627067631199567E-004 
 9.864856201690234E-004  1.010851814987213E-003  1.035819854817400E-003  1.061404605231389E-003 
 1.087621298980582E-003  1.114485545065419E-003  1.142013338028536E-003  1.170221067477846E-003 
 1.199125527844543E-003  1.228743928382298E-003  1.259093903413328E-003  1.290193522827651E-003 
 1.322061302841501E-003  1.354716217021688E-003  1.388177707582113E-003  1.422465696959387E-003 
 1.457600599674278E-003  1.493603334486247E-003  1.530495336848051E-003  1.568298571668200E-003 
 1.607035546388398E-003  1.646729324384202E-003  1.687403538696496E-003  1.729082406102300E-003 
 1.771790741533025E-003  1.815553972848875E-003  1.860398155978245E-003  1.906349990430923E-003 
 1.953436835194547E-003  2.001686725023866E-003  2.051128387131953E-003  2.101791258294104E-003 
 2.153705502373967E-003  2.206902028282605E-003  2.261412508381196E-003  2.317269397338205E-003 
 2.374505951452470E-003  2.433156248453334E-003  2.493255207790015E-003  2.554838611422621E-003 
 2.617943125124739E-003  2.682606320315215E-003  2.748866696426966E-003  2.816763703828720E-003 
 2.886337767313327E-003  2.957630310166049E-003  3.030683778826990E-003  3.105541668164257E-003 
 3.182248547367846E-003  3.260850086487699E-003  3.341393083623955E-003  3.423925492789427E-003 
 3.508496452461377E-003  3.595156314837217E-003  3.683956675813682E-003  3.774950405706282E-003 
 3.868191680727354E-003  3.963736015241248E-003  4.061640294817634E-003  4.161962810099764E-003 
 4.264763291509165E-003  4.370102944809449E-003  4.478044487546321E-003  4.588652186388683E-003 
 4.701991895392291E-003  4.818131095208660E-003  4.937138933260219E-003  5.059086264911694E-003 
 5.184045695655082E-003  5.312091624337702E-003  5.443300287458975E-003  5.577749804559090E-003 
 5.715520224731781E-003  5.856693574282667E-003  6.001353905567342E-003  6.149587347035046E-003 
 6.301482154506740E-003  6.457128763722951E-003  6.616619844186988E-003  6.780050354338469E-003 
 6.947517598090537E-003  7.119121282763484E-003  7.294963578447730E-003  7.475149178835172E-003 
 7.659785363552611E-003  7.848982062032349E-003  8.042851918964405E-003  8.241510361362767E-003 
 8.445075667288658E-003  8.653669036270560E-003  8.867414661466387E-003  9.086439803604660E-003 
 9.310874866753719E-003  9.540853475962415E-003  9.776512556818851E-003  1.001799241697213E-002 
 1.026543682967145E-002  1.051899311936436E-002  1.077881224941258E-002  1.104504891197320E-002 
 1.131786162009893E-002  1.159741280211521E-002  1.188386889832761E-002  1.217740046011622E-002 
 1.247818225148105E-002  1.278639335309274E-002  1.310221726891417E-002  1.342584203545631E-002 
 1.375746033373202E-002  1.409726960397525E-002  1.444547216319336E-002  1.480227532562426E-002 
 1.516789152616711E-002  1.554253844686355E-002  1.592643914650110E-002  1.631982219341955E-002 
 1.672292180159694E-002  1.713597797009663E-002  1.755923662595789E-002  1.799294977061917E-002 
 1.843737562995345E-002  1.889277880801319E-002  1.935943044457110E-002  1.983760837655199E-002 
 2.032759730345279E-002  2.082968895684806E-002  2.134418227408231E-002  2.187138357625202E-002 
 2.241160675058556E-002  2.296517343732506E-002  2.353241322122700E-002  2.411366382779118E-002 
 2.470927132433659E-002  2.531959032604791E-002  2.594498420710213E-002  2.658582531701650E-002 
 2.724249520234786E-002  2.791538483384581E-002  2.860489483924228E-002  2.931143574177017E-002 
 3.003542820459413E-002  3.077730328124607E-002  3.153750267229248E-002  3.231647898829934E-002 
 3.311469601930933E-002  3.393262901098754E-002  3.477076494755771E-002  3.562960284176313E-002 
 3.650965403195482E-002  3.741144248654350E-002  3.833550511596199E-002  3.928239209232560E-002 
 4.025266717700555E-002  4.124690805627863E-002  4.226570668526811E-002  4.330966964039510E-002 
 4.437941848051161E-002  4.547559011698091E-002  4.659883719286886E-002  4.774982847153407E-002 
 4.892924923478036E-002  5.013780169087900E-002  5.137620539264372E-002  5.264519766584385E-002 
 5.394553404819007E-002  5.527798873918043E-002  5.664335506103627E-002  5.804244593104482E-002 
 5.947609434554090E-002  6.094515387587598E-002  6.245049917661173E-002  6.399302650627220E-002 
 6.557365426097905E-002  6.719332352122377E-002  6.885299861219889E-002  7.055366767791993E-002 
 7.229634326956534E-002  7.408206294832195E-002  7.591188990314629E-002  7.778691358375367E-002 
 7.970825034927219E-002  8.167704413290046E-002  8.369446712298168E-002  8.576172046091847E-002 
 8.788003495630428E-002  9.005067181972520E-002  9.227492341367131E-002  9.455411402198965E-002 
 9.688960063833228E-002  9.928277377410004E-002  1.017350582863210E-001  1.042479142259928E-001 
 1.068228377073755E-001  1.094613617987453E-001  1.121650574351756E-001  1.149355343538231E-001 
 1.177744420523627E-001  1.206834707710567E-001  1.236643524991029E-001  1.267188620058306E-001 
 1.298488178973740E-001  1.330560836994392E-001  1.363425689668157E-001  1.397102304202966E-001 
 1.431610731116759E-001  1.466971516175343E-001  1.503205712624887E-001  1.540334893726709E-001 
 1.578381165601763E-001  1.617367180392131E-001  1.657316149747824E-001  1.698251858646601E-001 
 1.740198679555156E-001  1.783181586940171E-001  1.827226172137601E-001  1.872358658589385E-001 
 1.918605917456538E-001  1.965995483617723E-001  2.014555572063091E-001  2.064315094693042E-001 
 2.115303677531959E-001  2.167551678367007E-001  2.221090204822659E-001  2.275951132881785E-001 
 2.332167125863969E-001  2.389771653872810E-001  2.448799013723556E-001  2.509284349362413E-001 
 2.571263672791720E-001  2.634773885509712E-001  2.699852800481669E-001  2.766539164653692E-001 
 2.834872682020597E-001  2.904894037266481E-001  2.976644919986975E-001  3.050168049510518E-001 
 3.125507200333528E-001  3.202707228181684E-001  3.281814096717793E-001  3.362874904906749E-001 
 3.445937915058085E-001  3.531052581560008E-001  3.618269580324450E-001  3.707640838958507E-001 
 3.799219567680799E-001  3.893060291002534E-001  3.989218880190328E-001  4.087752586530824E-001 
 4.188720075418304E-001  4.292181461281178E-001  4.398198343374662E-001  4.506833842456009E-001 
 4.618152638364727E-001  4.732221008532423E-001  4.849106867443045E-001  4.968879807068851E-001 
 5.091611138303622E-001  5.217373933419679E-001  5.346243069575081E-001  5.478295273393677E-001 
 5.613609166646337E-001  5.752265313062618E-001  5.894346266295331E-001  6.039936619072649E-001 
 6.189123053563864E-001  6.341994392986861E-001  6.498641654493643E-001  6.659158103359563E-001 
 6.823639308512576E-001  6.992183199432805E-001  7.164890124458757E-001  7.341862910532878E-001 
 7.523206924423070E-001  7.709030135456509E-001  7.899443179802119E-001  8.094559426343194E-001 
 8.294495044174073E-001  8.499369071765028E-001  8.709303487837603E-001  8.924423283987211E-001 
 9.144856539101807E-001  9.370734495617644E-001  9.602191637659422E-001  9.839365771109484E-001 
 1.008239810565586E+000  1.033143333886548E+000  1.058661974233557E+000  1.084810924997119E+000 
 1.111605754844561E+000  1.139062416989211E+000  1.167197258688855E+000  1.196027030978464E+000 
 1.225568898643621E+000  1.255840450440123E+000  1.286859709565997E+000  1.318645144392276E+000 
 1.351215679458760E+000  1.384590706741398E+000  1.418790097197920E+000  1.453834212598712E+000 
 1.489743917649895E+000  1.526540592415848E+000  1.564246145048507E+000  1.602883024831200E+000 
 1.642474235544541E+000  1.683043349162500E+000  1.724614519886806E+000  1.767212498528018E+000 
 1.810862647241640E+000  1.855590954628509E+000  1.901424051207855E+000
    </PP_RAB>
  </PP_MESH>
  <PP_LOCAL type="real" size="551" columns="4">
-4.961450708367600E+000 -4.961450901925800E+000 -4.961451090778000E+000 -4.961451275035800E+000 
-4.961451454807800E+000 -4.961451630199800E+000 -4.961451801315200E+000 -4.961451968254400E+000 
-4.961452131115600E+000 -4.961452289994400E+000 -4.961452444984200E+000 -4.961452596175400E+000 
-4.961452743656600E+000 -4.961452887513800E+000 -4.961453027831200E+000 -4.961453164690400E+000 
-4.961453298170800E+000 -4.961453428350000E+000 -4.961453555303400E+000 -4.961453679104400E+000 
-4.961453799824200E+000 -4.961453917532400E+000 -4.961454032296400E+000 -4.961454144181800E+000 
-4.961454253252400E+000 -4.961454359570200E+000 -4.961454463195200E+000 -4.961454564186200E+000 
-4.961454662599400E+000 -4.961454758490200E+000 -4.961454851911600E+000 -4.961454942915400E+000 
-4.961455031551400E+000 -4.961455117868000E+000 -4.961455201912000E+000 -4.961455283728800E+000 