<UPF version="2.0.1">
  <PP_INFO>
    Generated using FHI98PP, converted with fhi2upf.x v.5.0.1
    Author: Abinit web site
    Generation date: 10-Jul-2012, PG
    Pseudopotential type: SL
    Element:  Y
    Functional: SLA-PW

    Suggested minimum cutoff for wavefunctions:   0. Ry
    Suggested minimum cutoff for charge density:   0. Ry
    The Pseudo was generated with a Non-Relativistic Calculation
    L component and cutoff radius for Local Potential:  1   0.0000

    Valence configuration: 
    nl pn  l   occ       Rcut    Rcut US       E pseu
    5s  5  0  2.00      0.000      0.000     0.000000
    5p  5  1  0.00      0.000      0.000     0.000000
    4d  4  2  1.00      0.000      0.000     0.000000
    4f  4  3  0.00      0.000      0.000     0.000000

    Generation configuration: not available.
    Comment:
    yttrium, fhi98PP : Trouiller-Martins-type, LDA Ceperley/Alder Perdew/Wang (1992)
  </PP_INFO>
  <!--                               -->
  <!-- END OF HUMAN READABLE SECTION -->
  <!--                               -->
  <PP_HEADER generated="Generated using FHI98PP, converted with fhi2upf.x v.5.0.1"
             author="Abinit web site"
             date="10-Jul-2012, PG"
             comment="yttrium, fhi98PP : Trouiller-Martins-type, LDA Ceperley/Alder Perdew/Wang (1992)"
             element=" Y"
             pseudo_type="SL"
             relativistic="no"
             is_ultrasoft="F"
             is_paw="F"
             is_coulomb="F"
             has_so="F"
             has_wfc="F"
             has_gipaw="F"
             paw_as_gipaw="F"
             core_correction="F"
             functional="SLA-PW"
             z_valence="3.000000000000000E+000"
             total_psenergy="0.000000000000000E+000"
             wfc_cutoff="0.000000000000000E+000"
             rho_cutoff="0.000000000000000E+000"
             l_max="3"
             l_max_rho="0"
             l_local="1"
             mesh_size="537"
             number_of_wfc="4"
             number_of_proj="3"/>
  <PP_MESH dx="2.439988682353512E-002" mesh="537" xmin="-5.075173815233828E+000" rmax="7.667715966237800E+001"
zmesh="3.900000000000000E+001">
    <PP_R type="real" size="537" columns="4">
 1.602564102564100E-004  1.642147435897400E-004  1.682708477564100E-004  1.724271376959900E-004 
 1.766860879970800E-004  1.810502343706100E-004  1.855221751595700E-004  1.901045728860100E-004 
 1.948001558362900E-004  1.996117196854500E-004  2.045421291616800E-004  2.095943197519700E-004 
 2.147712994498500E-004  2.200761505462600E-004  2.255120314647500E-004  2.310821786419300E-004 
 2.367899084543900E-004  2.426386191932100E-004  2.486317930872800E-004  2.547729983765400E-004 
 2.610658914364400E-004  2.675142189549200E-004  2.741218201631000E-004  2.808926291211300E-004 
 2.878306770604200E-004  2.949400947838200E-004  3.022251151249800E-004  3.096900754685600E-004 
 3.173394203326400E-004  3.251777040148500E-004  3.332095933040200E-004  3.414398702586300E-004 
 3.498734350540200E-004  3.585153088998500E-004  3.673706370296800E-004  3.764446917643100E-004 
 3.857428756508900E-004  3.952707246794700E-004  4.050339115790500E-004  4.150382491950500E-004 
 4.252896939501700E-004  4.357943493907400E-004  4.465584698206900E-004  4.575884640252600E-004 
 4.688908990866900E-004  4.804725042941300E-004  4.923401751501900E-004  5.045009774764000E-004 
 5.169621516200699E-004  5.297311167650800E-004  5.428154753491800E-004  5.562230175903100E-004 
 5.699617261247900E-004  5.840397807600700E-004  5.984655633448400E-004  6.132476627594600E-004 
 6.283948800296200E-004  6.439162335663500E-004  6.598209645354400E-004  6.761185423594600E-004 
 6.928186703557400E-004  7.099312915135300E-004  7.274665944139100E-004  7.454350192959400E-004 
 7.638472642725500E-004  7.827142917000800E-004  8.020473347050700E-004  8.218579038722900E-004 
 8.421577940979301E-004  8.629590916121500E-004  8.842741811749700E-004  9.061157534499900E-004 
 9.284968125602100E-004  9.514306838304400E-004  9.749310217210600E-004  9.990118179575699E-004 
 1.023687409861100E-003  1.048972488884700E-003  1.074882109360100E-003  1.101431697461300E-003 
 1.128637060388600E-003  1.156514395780200E-003  1.185080301356000E-003  1.214351784799500E-003 
 1.244346273884000E-003  1.275081626849000E-003  1.306576143032100E-003  1.338848573765000E-003 
 1.371918133537000E-003  1.405804511435400E-003  1.440527882867900E-003  1.476108921574700E-003 
 1.512568811937600E-003  1.549929261592400E-003  1.588212514353800E-003  1.627441363458300E-003 
 1.667639165135700E-003  1.708829852514600E-003  1.751037949871700E-003  1.794288587233500E-003 
 1.838607515338200E-003  1.884021120967100E-003  1.930556442654900E-003  1.978241186788500E-003 
 2.027103744102200E-003  2.077173206581500E-003  2.128479384784100E-003  2.181052825588200E-003 
 2.234924830380300E-003  2.290127473690700E-003  2.346693622290800E-003  2.404656954761400E-003 
 2.464051981544000E-003  2.524914065488200E-003  2.587279442905700E-003  2.651185245145500E-003 
 2.716669520700600E-003  2.783771257861900E-003  2.852530407931100E-003  2.922987909007000E-003 
 2.995185710359400E-003  3.069166797405300E-003  3.144975217301200E-003  3.222656105168600E-003 
 3.302255710966200E-003  3.383821427027100E-003  3.467401816274700E-003  3.553046641136600E-003 
 3.640806893172700E-003  3.730734823434100E-003  3.822883973572900E-003  3.917309207720200E-003 
 4.014066745150800E-003  4.113214193756100E-003  4.214810584341800E-003  4.318916405775100E-003 
 4.425593640997700E-003  4.534905803930400E-003  4.646917977287500E-003  4.761696851326500E-003 
 4.879310763554200E-003  4.999829739414000E-003  5.123325533977500E-003  5.249871674666800E-003 
 5.379543505031100E-003  5.512418229605300E-003  5.648574959876600E-003  5.788094761385500E-003 
 5.931060701991700E-003  6.077557901330900E-003  6.227673581493800E-003  6.381497118956700E-003 
 6.539120097794900E-003  6.700636364210500E-003  6.866142082406500E-003  7.035735791841900E-003 
 7.209518465900400E-003  7.387593572008100E-003  7.570067133236700E-003  7.757047791427700E-003 
 7.948646871876000E-003  8.144978449611300E-003  8.346159417316701E-003  8.552309554924401E-003 
 8.763551600931100E-003  8.980011325474000E-003  9.201817605213301E-003  9.429102500062000E-003 
 9.662001331813601E-003  9.900652764709399E-003  1.014519888799800E-002  1.039578530053100E-002 
 1.065256119745400E-002  1.091567945903100E-002  1.118529674167000E-002  1.146157357118900E-002 
 1.174467443839700E-002  1.203476789702600E-002  1.233202666408200E-002  1.263662772268500E-002 
 1.294875242743500E-002  1.326858661239300E-002  1.359632070171900E-002  1.393214982305100E-002 
 1.427627392368100E-002  1.462889788959600E-002  1.499023166746900E-002  1.536049038965500E-002 
 1.573989450228000E-002  1.612866989648600E-002  1.652704804292900E-002  1.693526612959000E-002 
 1.735356720299000E-002  1.778220031290400E-002  1.822142066063300E-002  1.867148975095100E-002 
 1.913267554779900E-002  1.960525263383000E-002  2.008950237388500E-002  2.058571308252000E-002 
 2.109418019565900E-002  2.161520644649100E-002  2.214910204572000E-002  2.269618486624900E-002 
 2.325678063244500E-002  2.383122311406700E-002  2.441985432498400E-002  2.502302472681100E-002 
 2.564109343756300E-002  2.627442844547100E-002  2.692340682807400E-002  2.758841497672800E-002 
 2.826984882665300E-002  2.896811409267100E-002  2.968362651076000E-002  3.041681208557600E-002 
 3.116810734409000E-002  3.193795959548900E-002  3.272682719749700E-002  3.353517982927600E-002 
 3.436349877105900E-002  3.521227719070400E-002  3.608202043731400E-002  3.697324634211600E-002 
 3.788648552676600E-002  3.882228171927700E-002  3.978119207774300E-002  4.076378752206400E-002 
 4.177065307385900E-002  4.280238820478300E-002  4.385960719344100E-002  4.494293949111900E-002 
 4.605303009655000E-002  4.719053993993500E-002  4.835614627645100E-002  4.955054308947900E-002 
 5.077444150378900E-002  5.202857020893300E-002  5.331367589309400E-002  5.463052368765300E-002 
 5.597989762273800E-002  5.736260109402000E-002  5.877945734104200E-002  6.023130993736600E-002 
 6.171902329281900E-002  6.324348316815100E-002  6.480559720240500E-002  6.640629545330400E-002 
 6.804653095100099E-002  6.972728026548999E-002  7.144954408804800E-002  7.321434782702300E-002 
 7.502274221834999E-002  7.687580395114300E-002  7.877463630873700E-002  8.072036982556199E-002 
 8.271416296025400E-002  8.475720278537199E-002  8.685070569417100E-002  8.899591812481700E-002 
 9.119411730250000E-002  9.344661199987100E-002  9.575474331626800E-002  9.811988547618000E-002 
 1.005434466474400E-001  1.030268697796300E-001  1.055716334631900E-001  1.081792528097300E-001 
 1.108512803541300E-001  1.135893069788800E-001  1.163949628612600E-001  1.192699184439300E-001 
 1.222158854294900E-001  1.252346177996000E-001  1.283279128592500E-001  1.314976123068800E-001 
 1.347456033308600E-001  1.380738197331300E-001  1.414842430805400E-001  1.449789038846300E-001 
 1.485598828105800E-001  1.522293119160000E-001  1.559893759203200E-001  1.598423135055600E-001 
 1.637904186491400E-001  1.678360419897800E-001  1.719815922269200E-001  1.762295375549300E-001 
 1.805824071325400E-001  1.850427925887100E-001  1.896133495656500E-001  1.942967992999200E-001 
 1.990959302426300E-001  2.040135997196200E-001  2.090527356327000E-001  2.142163382028300E-001 
 2.195074817564400E-001  2.249293165558200E-001  2.304850706747500E-001  2.361780519204100E-001 
 2.420116498028500E-001  2.479893375529800E-001  2.541146741905400E-001  2.603913066430400E-001 
 2.668229719171300E-001  2.734134993234800E-001  2.801668127567700E-001  2.870869330318600E-001 
 2.941779802777500E-001  3.014441763906100E-001  3.088898475474600E-001  3.165194267818800E-001 
 3.243374566233900E-001  3.323485918019900E-001  3.405576020195000E-001  3.489693747893800E-001 
 3.575889183466800E-001  3.664213646298400E-001  3.754719723362000E-001  3.847461300529000E-001 
 3.942493594652100E-001  4.039873186440000E-001  4.139658054145100E-001  4.241907608082400E-001 
 4.346682726002100E-001  4.454045789334300E-001  4.564060720330900E-001  4.676793020123100E-001 
 4.792309807720100E-001  4.910679859970800E-001  5.031973652512099E-001  5.156263401729100E-001 
 5.283623107751800E-001  5.414128598513300E-001  5.547857574896600E-001  5.684889656996500E-001 
 5.825306431524300E-001  5.969191500383000E-001  6.116630530442400E-001  6.267711304544400E-001 
 6.422523773766600E-001  6.581160110978600E-001  6.743714765719800E-001  6.910284520433100E-001 
 7.080968548087800E-001  7.255868471225601E-001  7.435088422464800E-001  7.618735106499700E-001 
 7.806917863630300E-001  7.999748734861900E-001  8.197342528613000E-001  8.399816889069800E-001 
 8.607292366229800E-001  8.819892487675700E-001  9.037743832121200E-001  9.260976104774600E-001 
 9.489722214562600E-001  9.724118353262300E-001  9.964304076587800E-001  1.021042238728000E+000 
 1.046261982024500E+000  1.072104652980500E+000  1.098585637909200E+000  1.125720703165500E+000 
 1.153526004533700E+000  1.182018096845700E+000  1.211213943837800E+000  1.241130928250600E+000 
 1.271786862178400E+000  1.303199997674200E+000  1.335389037616700E+000  1.368373146845800E+000 
 1.402171963572900E+000  1.436805611073200E+000  1.472294709666700E+000  1.508660388995500E+000 
 1.545924300603700E+000  1.584108630828600E+000  1.623236114010000E+000  1.663330046026100E+000 
 1.704414298162900E+000  1.746513331327500E+000  1.789652210611300E+000  1.833856620213400E+000 
 1.879152878732700E+000  1.925567954837400E+000  1.973129483321900E+000  2.021865781559900E+000 
 2.071805866364500E+000  2.122979471263700E+000  2.175417064203900E+000  2.229149865689700E+000 
 2.284209867372300E+000  2.340629851096400E+000  2.398443408418400E+000  2.457684960606400E+000 
 2.518389779133300E+000  2.580594006677900E+000  2.644334678642900E+000  2.709649745205400E+000 
 2.776578093911900E+000  2.845159572831600E+000  2.915435014280500E+000  2.987446259133200E+000 
 3.061236181733800E+000  3.136848715422600E+000  3.214328878693600E+000  3.293722801997300E+000 
 3.375077755206600E+000  3.458442175760300E+000  3.543865697501500E+000  3.631399180229800E+000 
 3.721094739981500E+000  3.813005780059000E+000  3.907187022826500E+000  4.003694542290300E+000 
 4.102585797484900E+000  4.203919666682800E+000  4.307756482449800E+000  4.414158067566300E+000 
 4.523187771835200E+000  4.634910509799500E+000  4.749392799391600E+000  4.866702801536600E+000 
 4.986910360734500E+000  5.110087046644700E+000  5.236306196696800E+000  5.365642959755200E+000 
 5.498174340861100E+000  5.633979247080400E+000  5.773138534483300E+000  5.915735056285000E+000 
 6.061853712175300E+000  6.211581498866000E+000  6.365007561888000E+000  6.522223248666600E+000 
 6.683322162908700E+000  6.848400220332500E+000  7.017555705774800E+000  7.190889331707400E+000 
 7.368504298200600E+000  7.550506354366100E+000  7.737003861319000E+000  7.928107856693500E+000 
 8.123932120753899E+000  8.324593244136500E+000  8.530210697266700E+000  8.740906901489099E+000 
 8.956807301955900E+000  9.178040442314201E+000  9.404738041239399E+000  9.637035070857999E+000 
 9.875069837108200E+000  1.011898406208500E+001  1.036892296841800E+001  1.062503536573800E+001 
 1.088747373927200E+001  1.115639434063200E+001  1.143195728084600E+001  1.171432662568200E+001 
 1.200367049333700E+001  1.230016115452200E+001  1.260397513503900E+001  1.291529332087400E+001 
 1.323430106590000E+001  1.356118830222800E+001  1.389614965329300E+001  1.423938454972900E+001 
 1.459109734810700E+001  1.495149745260600E+001  1.532079943968500E+001  1.569922318584500E+001 
 1.608699399853600E+001  1.648434275029900E+001  1.689150601623200E+001  1.730872621483300E+001 
 1.773625175233900E+001  1.817433717062200E+001  1.862324329873600E+001  1.908323740821500E+001 
 1.955459337219800E+001  2.003759182849100E+001  2.053252034665500E+001  2.103967359921700E+001 
 2.155935353711800E+001  2.209186956948500E+001  2.263753874785100E+001  2.319668595492300E+001 
 2.376964409801000E+001  2.435675430723000E+001  2.495836613861900E+001  2.557483778224300E+001 
 2.620653627546400E+001  2.685383772146800E+001  2.751712751318800E+001  2.819680056276400E+001 
 2.889326153666500E+001  2.960692509662000E+001  3.033821614650700E+001  3.108757008532500E+001 
 3.185543306643300E+001  3.264226226317400E+001  3.344852614107400E+001  3.427470473675900E+001 
 3.512128994375700E+001  3.598878580536700E+001  3.687770881476000E+001  3.778858822248500E+001 
 3.872196635158000E+001  3.967839892046400E+001  4.065845537379900E+001  4.166271922153200E+001 
 4.269178838630400E+001  4.374627555944600E+001  4.482680856576400E+001  4.593403073733900E+001 
 4.706860129655100E+001  4.823119574857600E+001  4.942250628356500E+001  5.064324218876900E+001 
 5.189413027083200E+001  5.317591528852200E+001  5.448936039614800E+001  5.583524759793300E+001 
 5.721437821360200E+001  5.862757335547800E+001  6.007567441735800E+001  6.155954357546700E+001 
 6.308006430178100E+001  6.463814189003500E+001  6.623470399471900E+001  6.787070118338799E+001 
 6.954710750261800E+001  7.126492105793299E+001  7.302516460806400E+001  7.482888617388301E+001 
 7.667715966237800E+001
    </PP_R>
    <PP_RAB type="real" size="537" columns="4">
 3.910238273002417E-006  4.006821158345496E-006  4.105789640956713E-006  4.207202645088263E-006 
 4.311120550421919E-006  4.417605228017393E-006  4.526720077149567E-006  4.638530063055127E-006 
 4.753101755612480E-006  4.870503368976198E-006  4.990804802189895E-006  5.114077680803900E-006 
 5.240395399519911E-006  5.369833165888021E-006  5.502468045085391E-006  5.638379005799016E-006 
 5.777646967242358E-006  5.920354847333160E-006  6.066587612062234E-006  6.216432326080273E-006 
 6.369978204534443E-006  6.527316666186442E-006  6.688541387841088E-006  6.853748360120798E-006 
 7.023035944615734E-006  7.196504932447929E-006  7.374258604279385E-006  7.556402791804914E-006 
 7.743045940762655E-006  7.934299175499342E-006  8.130276365134255E-006  8.331094191353087E-006 
 8.536872217879554E-006  8.747732961661074E-006  8.963801965814192E-006  9.185207874369727E-006 
 9.412082508866698E-006  9.644560946835778E-006  9.882781602222551E-006  1.012688630779739E-005 
 1.037702039960004E-005  1.063333280347018E-005  1.089597612371586E-005  1.116510673397162E-005 
 1.144088487030086E-005  1.172347472659727E-005  1.201304455234410E-005  1.230976675278700E-005 
 1.261381799158091E-005  1.292537929597282E-005  1.324463616458341E-005  1.357177867784875E-005 
 1.390700161119160E-005  1.425050455098797E-005  1.460249201339729E-005  1.496317356612826E-005 
 1.533276395321166E-005  1.571148322285595E-005  1.609955685846052E-005  1.649721591286436E-005 
 1.690469714591214E-005  1.732224316541625E-005  1.775010257160193E-005  1.818853010512065E-005 
 1.863778679871714E-005  1.909814013264541E-005  1.956986419392170E-005  2.005323983951168E-005 
 2.054855486354749E-005  2.105610416867714E-005  2.157618994164346E-005  2.210912183320201E-005 
 2.265521714248223E-005  2.321480100590136E-005  2.378820659074733E-005  2.437577529353878E-005 
 2.497785694328865E-005  2.559481000978864E-005  2.622700181702914E-005  2.687480876190990E-005 
 2.753861653832921E-005  2.821882036682598E-005  2.891582522988730E-005  2.963004611306568E-005 
 3.036190825205724E-005  3.111184738588464E-005  3.188031001631428E-005  3.266775367371741E-005 
 3.347464718945834E-005  3.430147097503884E-005  3.514871730812342E-005  3.601689062563316E-005 
 3.690650782408642E-005  3.781809856733992E-005  3.875220560195487E-005  3.970938508032221E-005 
 4.069020689180568E-005  4.169525500203446E-005  4.272512780058444E-005  4.378043845725812E-005 
 4.486181528715319E-005  4.596990212474702E-005  4.710535870722613E-005  4.826886106729520E-005 
 4.946110193565798E-005  5.068279115346814E-005  5.193465609495970E-005  5.321744210050357E-005 
 5.453191292038774E-005  5.587885116952148E-005  5.725905879340720E-005  5.867335754560478E-005 
 6.012258947698105E-005  6.160761743706402E-005  6.312932558775807E-005  6.468861992977642E-005 
 6.628642884204205E-005  6.792370363444035E-005  6.960141911421131E-005  7.132057416633237E-005 
 7.308219234823900E-005  7.488732249924107E-005  7.673703936497205E-005  7.863244423728833E-005 
 8.057466560994779E-005  8.256485985051435E-005  8.460421188882279E-005  8.669393592247466E-005 
 8.883527613976040E-005  9.102950746041332E-005  9.327793629468498E-005  9.558190132116493E-005 
 9.794277428379550E-005  1.003619608086071E-004  1.028409012405779E-004  1.053810715012215E-004 
 1.079839839673006E-004  1.106511883712943E-004  1.133842727240657E-004  1.161848642603501E-004 
 1.190546304075792E-004  1.219952797786467E-004  1.250085631891786E-004  1.280962746999527E-004 
 1.312602526850423E-004  1.345023809263612E-004  1.378245897352435E-004  1.412288571017027E-004 
 1.447172098721143E-004  1.482917249559556E-004  1.519545305623683E-004  1.557078074672589E-004 
 1.595537903116995E-004  1.634947689324000E-004  1.675330897250303E-004  1.716711570412376E-004 
 1.759114346201563E-004  1.802564470552732E-004  1.847087812975384E-004  1.892710881955890E-004 
 1.939460840740209E-004  1.987365523506483E-004  2.036453451937093E-004  2.086753852199934E-004 
 2.138296672349289E-004  2.191112600156292E-004  2.245233081380175E-004  2.300690338490249E-004 
 2.357517389850975E-004  2.415748069380294E-004  2.475417046694056E-004  2.536559847747265E-004 
 2.599212875986594E-004  2.663413434023435E-004  2.729199745844042E-004  2.796610979566329E-004 
 2.865687270761527E-004  2.936469746349482E-004  3.009000549084182E-004  3.083322862646603E-004 
 3.159480937353897E-004  3.237520116506625E-004  3.317486863384312E-004  3.399428788909793E-004 
 3.483394679996021E-004  3.569434528591942E-004  3.657599561448158E-004  3.747942270615809E-004 
 3.840516444700147E-004  3.935377200884163E-004  4.032581017745952E-004  4.132185768884437E-004 
 4.234250757375669E-004  4.338836751082884E-004  4.446006018834697E-004  4.555822367500004E-004 
 4.668351179977134E-004  4.783659454122658E-004  4.901815842639342E-004  5.022890693952544E-004 
 5.146956094093355E-004  5.274085909617271E-004  5.404355831584983E-004  5.537843420625062E-004 
 5.674628153114415E-004  5.814791468496491E-004  5.958416817768242E-004  6.105589713167093E-004 
 6.256397779082263E-004  6.410930804225642E-004  6.569280795089982E-004  6.731542030728845E-004 
 6.897811118887803E-004  7.068187053524251E-004  7.242771273746308E-004  7.421667724207896E-004 
 7.604982916995898E-004  7.792825995045691E-004  7.985308797123178E-004  8.182545924412323E-004 
 8.384654808745278E-004  8.591755782521249E-004  8.803972150349428E-004  9.021430262463143E-004 
 9.244259589945918E-004  9.472592801817553E-004  9.706565844022412E-004  9.946318020369947E-004 
 1.019199207547309E-003  1.044373427973720E-003  1.070169451644667E-003  1.096602637100291E-003 
 1.123688722236677E-003  1.151443833675928E-003  1.179884496367714E-003  1.209027643427988E-003 
 1.238890626220656E-003  1.269491224688316E-003  1.300847657938126E-003  1.332978595089188E-003 
 1.365903166387890E-003  1.399640974597680E-003  1.434212106670235E-003  1.469637145704997E-003 
 1.505937183203912E-003  1.543133831629033E-003  1.581249237270286E-003  1.620306093430852E-003 
 1.660327653938604E-003  1.701337746990870E-003  1.743360789341554E-003  1.786421800838296E-003 
 1.830546419318990E-003  1.875760915876163E-003  1.922092210498323E-003  1.969567888097612E-003 
 2.018216214933638E-003  2.068066155442493E-003  2.119147389481930E-003  2.171490330002133E-003 
 2.225126141153186E-003  2.280086756839651E-003  2.336404899733595E-003  2.394114100757020E-003 
 2.453248719045677E-003  2.513843962406063E-003  2.575935908277569E-003  2.639561525212006E-003 
 2.704758694884734E-003  2.771566234648460E-003  2.840023920644317E-003  2.910172511484156E-003 
 2.982053772517691E-003  3.055710500698917E-003  3.131186550066177E-003  3.208526857852971E-003 
 3.287777471241941E-003  3.368985574781562E-003  3.452199518478708E-003  3.537468846585149E-003 
 3.624844327095793E-003  3.714377981975027E-003  3.806123118129682E-003  3.900134359147683E-003 
 3.996467677818452E-003  4.095180429460720E-003  4.196331386068216E-003  4.299980771304225E-003 
 4.406190296355517E-003  4.515023196675408E-003  4.626544269633263E-003  4.740819913093166E-003 
 4.857918164946616E-003  4.977908743620725E-003  5.100863089588288E-003  5.226854407901175E-003 
 5.355957711776336E-003  5.488249867257112E-003  5.623809638978393E-003  5.762717737061006E-003 
 5.905056865166556E-003  6.050911769736160E-003  6.200369290448678E-003  6.353518411922605E-003 
 6.510450316697262E-003  6.671258439519609E-003  6.836038522975744E-003  7.004888674493190E-003 
 7.177909424753247E-003  7.355203787544642E-003  7.536877321097042E-003  7.723038190928083E-003 
 7.913797234243947E-003  8.109268025929829E-003  8.309566946170317E-003  8.514813249740683E-003 
 8.725129137009334E-003  8.940639826693391E-003  9.161473630412790E-003  9.387762029083884E-003 
 9.619639751202339E-003  9.857244853057020E-003  1.010071880092761E-002  1.035020655531031E-002 
 1.060585665722664E-002  1.086782131666001E-002  1.113625650318162E-002  1.141132203881027E-002 
 1.169318169316878E-002  1.198200328099008E-002  1.227795876203059E-002  1.258122434345262E-002 
 1.289198058473588E-002  1.321041250517893E-002  1.353670969405690E-002  1.387106642350000E-002 
 1.421368176416042E-002  1.456475970373530E-002  1.492450926841741E-002  1.529314464734750E-002 
 1.567088532013687E-002  1.605795618754417E-002  1.645458770537658E-002  1.686101602169943E-002 
 1.727748311743542E-002  1.770423695043614E-002  1.814153160311174E-002  1.858962743370865E-002 
 1.904879123132139E-002  1.951929637473486E-002  2.000142299519084E-002  2.049545814317220E-002 
 2.100169595930849E-002  2.152043784950347E-002  2.205199266438599E-002  2.259667688319634E-002 
 2.315481480221145E-002  2.372673872782608E-002  2.431278917440319E-002  2.491331506701213E-002 
 2.552867394916534E-002  2.615923219570960E-002  2.680536523094561E-002  2.746745775214858E-002 
 2.814590395862694E-002  2.884110778640545E-002  2.955348314872994E-002  3.028345418250373E-002 
 3.103145550081182E-002  3.179793245168171E-002  3.258334138323696E-002  3.338814991540213E-002 
 3.421283721831277E-002  3.505789429760630E-002  3.592382428675698E-002  3.681114274664067E-002 
 3.772037797248297E-002  3.865207130840302E-002  3.960677746971895E-002  4.058506487322230E-002 
 4.158751597558981E-002  4.261472762018630E-002  4.366731139240516E-002  4.474589398379759E-002 
 4.585111756519810E-002  4.698364016905855E-002  4.814413608123469E-002  4.933329624243994E-002 
 5.055182865962993E-002  5.180045882752271E-002  5.307993016056219E-002  5.439100443552720E-002 
 5.573446224508629E-002  5.711110346254002E-002  5.852174771806278E-002  5.996723488670053E-002 
 6.144842558840014E-002  6.296620170043379E-002  6.452146688243587E-002  6.611514711443253E-002 
 6.774819124815723E-002  6.942157157198857E-002  7.113628438981570E-002  7.289335061424346E-002 
 7.469381637441551E-002  7.653875363886296E-002  7.842926085374440E-002  8.036646359683110E-002 
 8.235151524767202E-002  8.438559767429188E-002  8.646992193684495E-002  8.860572900868534E-002 
 9.079429051520045E-002  9.303690949092486E-002  9.533492115535173E-002  9.768969370788858E-002 
 1.001026291424741E-001  1.025751640822938E-001  1.051087706351249E-001  1.077049572698122E-001 
 1.103652697143769E-001  1.130912918763213E-001  1.158846467856677E-001  1.187469975612743E-001 
 1.216800484010365E-001  1.246855455965435E-001  1.277652785727776E-001  1.309210809535249E-001 
 1.341548316530757E-001  1.374684559949074E-001  1.408639268579819E-001  1.443432658513732E-001 
 1.479085445179036E-001  1.515618855674951E-001  1.553054641410124E-001  1.591415091052946E-001 
 1.630723043801962E-001  1.671001902983860E-001  1.712275649987582E-001  1.754568858542266E-001 
 1.797906709348267E-001  1.842315005069156E-001  1.887820185694378E-001  1.934449344281010E-001 
 1.982230243084768E-001  2.031191330088957E-001  2.081361755942161E-001  2.132771391313911E-001 
 2.185450844679369E-001  2.239431480542947E-001  2.294745438112367E-001  2.351425650433739E-001 
 2.409505863999455E-001  2.469020658840297E-001  2.530005469113530E-001  2.592496604200653E-001 
 2.656531270324475E-001  2.722147592701485E-001  2.789384638241307E-001  2.858282438805649E-001 
 2.928882015044308E-001  3.001225400815799E-001  3.075355668216024E-001  3.151316953220847E-001 
 3.229154481965502E-001  3.308914597670116E-001  3.390644788232560E-001  3.474393714501822E-001 
 3.560211239249942E-001  3.648148456859601E-001  3.738257723743943E-001  3.830592689520365E-001 
 3.925208328951671E-001  4.022160974676572E-001  4.121508350751234E-001  4.223309607014807E-001 
 4.327625354307981E-001  4.434517700559443E-001  4.544050287763173E-001  4.656288329870977E-001 
 4.771298651618812E-001  4.889149728313725E-001  5.009911726603141E-001  5.133656546250146E-001 
 5.260457862942608E-001  5.390391172157335E-001  5.523533834109554E-001  5.659965119812079E-001 
 5.799766258271536E-001  5.943020484850635E-001  6.089813090826548E-001  6.240231474169992E-001 
 6.394365191581892E-001  6.552306011813974E-001  6.714147970305716E-001  6.879987425172330E-001 
 7.049923114574265E-001  7.224056215504097E-001  7.402490404027167E-001  7.585331917006461E-001 
 7.772689615356636E-001  7.964675048855969E-001  8.161402522562615E-001  8.362989164870027E-001 
 8.569554997242329E-001  8.781223005674021E-001  8.998119213914275E-001  9.220372758498061E-001 
 9.448115965632872E-001  9.681484429983996E-001  9.920617095404489E-001  1.016565633766102E+000 
 1.041674804920129E+000  1.067404172601663E+000  1.093769055664916E+000  1.120785151339855E+000 
 1.148468544577943E+000  1.176835717629023E+000  1.205903559854439E+000  1.235689377782843E+000 
 1.266210905414089E+000  1.297486314777828E+000  1.329534226752828E+000  1.362373722153626E+000 
 1.396024353090822E+000  1.430506154612166E+000  1.465839656631079E+000  1.502045896149873E+000 
 1.539146429784774E+000  1.577163346600459E+000  1.616119281261493E+000  1.656037427508638E+000 
 1.696941551968110E+000  1.738856008301730E+000  1.781805751706784E+000  1.825816353773937E+000 
 1.870914017712156E+000
    </PP_RAB>
  </PP_MESH>
  <PP_LOCAL type="real" size="537" columns="4">
-1.256955900823200E+000 -1.256955934962020E+000 -1.256955968273300E+000 -1.256956000776740E+000 
-1.256956032491560E+000 -1.256956063436520E+000 -1.256956093629900E+000 -1.256956123089540E+000 
-1.256956151832840E+000 -1.256956179876740E+000 -1.256956207237760E+000 -1.256956233932060E+000 
-1.256956259975300E+000 -1.256956285382820E+000 -1.256956310169560E+000 -1.256956334350020E+000 
-1.256956357938420E+000 -1.256956380948560E+000 -1.256956403393880E+000 -1.256956425287500E+000 
-1.256956446642180E+000 -1.256956467470340E+000 -1.256956487784100E+000 -1.256956507595240E+000 
-1.256956526915220E+000 -1.256956545755200E+000 -1.256956564126040E+000 -1.256956582038300E+000 
-1.256956599502220E+000 -1.256956616527820E+000 -1.256956633124760E+000 -1.256956649302480E+000 
-1.256956665070120E+000 -1.256956680436560E+000 -1.256956695410420E+000 -1.256956710000040E+000 
-1.256956724213520E+000 -1.256956738058720E+000 -1.256956751543220E+000 -1.256956764674360E+000 
-1.256956777459260E+000 -1.256956789904760E+000 -1.256956802017480E+000 -1.256956813803820E+000 
-1.256956825269920E+000 -1.256956836421680E+000 -1.256956847264780E+000 -1.256956857804680E+000 
-1.256956868046580E+000 -1.256956877995500E+000 -1.256956887656160E+000 -1.256956897033100E+000 
-1.256956906130600E+000 -1.256956914952740E+000 -1.256956923503360E+000 -1.256956931786040E+000 
-1.256956939804180E+000 -1.256956947560860E+000 -1.256956955059020E+000 -1.256956962301280E+000 
-1.256956969290080E+000 -1.256956976027560E+000 -1.256956982515620E+000 -1.256956988755960E+000 