<UPF version="2.0.1">
  <PP_INFO>
    Generated using FHI98PP, converted with fhi2upf.x v.5.0.1
    Author: Abinit web site
    Generation date: 10-Jul-2012, PG
    Pseudopotential type: SL
    Element: Yb
    Functional: SLA-PW

    Suggested minimum cutoff for wavefunctions:   0. Ry
    Suggested minimum cutoff for charge density:   0. Ry
    The Pseudo was generated with a Non-Relativistic Calculation
    L component and cutoff radius for Local Potential:  0   0.0000

    Valence configuration: 
    nl pn  l   occ       Rcut    Rcut US       E pseu
    6s  6  0  2.00      0.000      0.000     0.000000
    6p  6  1  0.00      0.000      0.000     0.000000
    5d  5  2  0.00      0.000      0.000     0.000000
    4f  4  3 14.00      0.000      0.000     0.000000

    Generation configuration: not available.
    Comment:
    ytterbium, fhi98PP : Trouiller-Martins-type, LDA Ceperley/Alder Perdew/Wang (199
  </PP_INFO>
  <!--                               -->
  <!-- END OF HUMAN READABLE SECTION -->
  <!--                               -->
  <PP_HEADER generated="Generated using FHI98PP, converted with fhi2upf.x v.5.0.1"
             author="Abinit web site"
             date="10-Jul-2012, PG"
             comment="ytterbium, fhi98PP : Trouiller-Martins-type, LDA Ceperley/Alder Perdew/Wang (199"
             element="Yb"
             pseudo_type="SL"
             relativistic="no"
             is_ultrasoft="F"
             is_paw="F"
             is_coulomb="F"
             has_so="F"
             has_wfc="F"
             has_gipaw="F"
             paw_as_gipaw="F"
             core_correction="F"
             functional="SLA-PW"
             z_valence="1.600000000000000E+001"
             total_psenergy="0.000000000000000E+000"
             wfc_cutoff="0.000000000000000E+000"
             rho_cutoff="0.000000000000000E+000"
             l_max="3"
             l_max_rho="0"
             l_local="0"
             mesh_size="561"
             number_of_wfc="4"
             number_of_proj="3"/>
  <PP_MESH dx="2.439988682353512E-002" mesh="561" xmin="-5.075173815233830E+000" rmax="7.672806625241800E+001"
zmesh="7.000000000000000E+001">
    <PP_R type="real" size="561" columns="4">
 8.928571428571400E-005  9.149107142857099E-005  9.375090089285701E-005  9.606654814491100E-005 
 9.843939188409000E-005  1.008708448636300E-004  1.033623547317600E-004  1.059154048936300E-004 
 1.085315153945100E-004  1.112122438247500E-004  1.139591862472200E-004  1.167739781475300E-004 
 1.196582954077700E-004  1.226138553043400E-004  1.256424175303600E-004  1.287457852433600E-004 
 1.319258061388700E-004  1.351843735505000E-004  1.385234275772000E-004  1.419449562383600E-004 
 1.454509966574400E-004  1.490436362748800E-004  1.527250140908700E-004  1.564973219389200E-004 
 1.603628057908100E-004  1.643237670938400E-004  1.683825641410600E-004  1.725416134753400E-004 
 1.768033913281800E-004  1.811704350939900E-004  1.856453448408100E-004  1.902307848583800E-004 
 1.949294852443800E-004  1.997442435299200E-004  2.046779263451100E-004  2.097334711258300E-004 
 2.149138878626400E-004  2.202222608928500E-004  2.256617507369000E-004  2.312355959801000E-004 
 2.369471152008100E-004  2.427997089462700E-004  2.487968617572400E-004  2.549421442426500E-004 
 2.612392152054400E-004  2.676918238210100E-004  2.743038118693900E-004  2.810791160225700E-004 
 2.880217701883200E-004  2.951359079119800E-004  3.024257648374000E-004  3.098956812288800E-004 
 3.175501045552400E-004  3.253935921377500E-004  3.334308138635500E-004  3.416665549659800E-004 
 3.501057188736400E-004  3.587533301298200E-004  3.676145373840300E-004  3.766946164574200E-004 
 3.859989734839100E-004  3.955331481289700E-004  4.053028168877500E-004  4.153137964648800E-004 
 4.255720472375600E-004  4.360836768043300E-004  4.468549436214000E-004  4.578922607288400E-004 
 4.692021995688500E-004  4.807914938982000E-004  4.926670437974800E-004  5.048359197792800E-004 
 5.173053669978300E-004  5.300828095626800E-004  5.431758549588700E-004  5.565922985763600E-004 
 5.703401283511900E-004  5.844275295214700E-004  5.988628895006500E-004  6.136548028713100E-004 
 6.288120765022400E-004  6.443437347918400E-004  6.602590250412000E-004  6.765674229597200E-004 
 6.932786383068200E-004  7.104026206730000E-004  7.279495654036200E-004  7.459299196690900E-004 
 7.643543886849200E-004  7.832339420854400E-004  8.025798204549500E-004  8.224035420201800E-004 
 8.427169095080800E-004  8.635320171729300E-004  8.848612579971001E-004  9.067173310696300E-004 
 9.291132491470500E-004  9.520623464009800E-004  9.755782863570900E-004  9.996750700301100E-004 
 1.024367044259900E-003  1.049668910253100E-003  1.075595732336300E-003  1.102162946925000E-003 
 1.129386371714100E-003  1.157282215095400E-003  1.185867085808300E-003  1.215158002827700E-003 
 1.245172405497600E-003  1.275928163913400E-003  1.307443589562000E-003  1.339737446224200E-003 
 1.372828961146000E-003  1.406737836486300E-003  1.441484261047500E-003  1.477088922295300E-003 
 1.513573018676000E-003  1.550958272237300E-003  1.589266941561600E-003  1.628521835018200E-003 
 1.668746324343100E-003  1.709964358554400E-003  1.752200478210700E-003  1.795479830022500E-003 
 1.839828181824000E-003  1.885271937915100E-003  1.931838154781600E-003  1.979554557204700E-003 
 2.028449554767700E-003  2.078552258770400E-003  2.129892499562000E-003  2.182500844301200E-003 
 2.236408615155500E-003  2.291647907949800E-003  2.348251611276200E-003  2.406253426074700E-003 
 2.465687885698700E-003  2.526590376475500E-003  2.588997158774400E-003  2.652945388596200E-003 
 2.718473139694500E-003  2.785619426244900E-003  2.854424226073200E-003  2.924928504457200E-003 
 2.997174238517300E-003  3.071204442208700E-003  3.147063191931200E-003  3.224795652771900E-003 
 3.304448105395400E-003  3.386067973598700E-003  3.469703852546600E-003  3.555405537704400E-003 
 3.643224054485700E-003  3.733211688631500E-003  3.825422017340700E-003  3.919909941169100E-003 
 4.016731716715900E-003  4.115944990118800E-003  4.217608831374800E-003  4.321783769509700E-003 
 4.428531828616600E-003  4.537916564783400E-003  4.650003103933600E-003  4.764858180600700E-003 
 4.882550177661600E-003  5.003149167049800E-003  5.126726951476000E-003  5.253357107177400E-003 
 5.383115027724700E-003  5.516077968909500E-003  5.652325094741600E-003  5.791937524581700E-003 
 5.934998381438800E-003  6.081592841460400E-003  6.231808184644400E-003  6.385733846805200E-003 
 6.543461472821300E-003  6.705084971199900E-003  6.870700569988600E-003  7.040406874067300E-003 
 7.214304923856800E-003  7.392498255476000E-003  7.575092962386300E-003  7.762197758557200E-003 
 7.953924043193601E-003  8.150385967060501E-003  8.351700500446800E-003  8.557987502807901E-003 
 8.769369794127201E-003  8.985973228042199E-003  9.207926766774800E-003  9.435362557914200E-003 
 9.668416013094599E-003  9.907225888618100E-003  1.015193436806700E-002  1.040268714695800E-002 
 1.065963351948800E-002  1.092292646741900E-002  1.119272275116500E-002  1.146918300311800E-002 
 1.175247182329500E-002  1.204275787733100E-002  1.234021399690100E-002  1.264501728262400E-002 
 1.295734920950500E-002  1.327739573498000E-002  1.360534740963400E-002  1.394139949065200E-002 
 1.428575205807100E-002  1.463861013390500E-002  1.500018380421300E-002  1.537068834417700E-002 
 1.575034434627800E-002  1.613937785163100E-002  1.653802048456600E-002  1.694650959053500E-002 
 1.736508837742100E-002  1.779400606034400E-002  1.823351801003400E-002  1.868388590488200E-002 
 1.914537788673300E-002  1.961826872053500E-002  2.010283995793200E-002  2.059938010489300E-002 
 2.110818479348400E-002  2.162955695788300E-002  2.216380701474300E-002  2.271125304800700E-002 
 2.327222099829300E-002  2.384704485695000E-002  2.443606686491700E-002  2.503963771648100E-002 
 2.565811676807800E-002  2.629187225224900E-002  2.694128149688000E-002  2.760673114985300E-002 
 2.828861740925400E-002  2.898734625926300E-002  2.970333371186600E-002  3.043700605455000E-002 
 3.118880010409700E-002  3.195916346666800E-002  3.274855480429500E-002  3.355744410796100E-002 
 3.438631297742700E-002  3.523565490797000E-002  3.610597558419700E-002  3.699779318112600E-002 
 3.791163867270000E-002  3.884805614791600E-002  3.980760313476900E-002  4.079085093219800E-002 
 4.179838495022400E-002  4.283080505849400E-002  4.388872594343900E-002  4.497277747424200E-002 
 4.608360507785600E-002  4.722187012327900E-002  4.838825031532400E-002  4.958344009811200E-002 
 5.080815106853500E-002  5.206311239992800E-002  5.334907127620700E-002  5.466679333672900E-002 
 5.601706313214600E-002  5.740068459151000E-002  5.881848150092000E-002  6.027129799399300E-002 
 6.175999905444500E-002  6.328547103108900E-002  6.484862216555699E-002  6.645038313304701E-002 
 6.809170759643300E-002  6.977357277406500E-002  7.149698002158400E-002  7.326295542811700E-002 
 7.507255042719201E-002  7.692684242274300E-002  7.882693543058500E-002  8.077396073572100E-002 
 8.276907756589300E-002  8.481347378177000E-002  8.690836658418000E-002  8.905500323880899E-002 
 9.125466181880799E-002  9.350865196573301E-002  9.581831566928600E-002  9.818502806631800E-002 
 1.006101982595600E-001  1.030952701565700E-001  1.056417233294300E-001  1.082510738956700E-001 
 1.109248754208900E-001  1.136647198437900E-001  1.164722384239300E-001  1.193491027130000E-001 
 1.222970255500100E-001  1.253177620811000E-001  1.284131108045000E-001  1.315849146413700E-001 
 1.348350620330200E-001  1.381654880652300E-001  1.415781756204400E-001  1.450751565582700E-001 
 1.486585129252600E-001  1.523303781945100E-001  1.560929385359100E-001  1.599484341177500E-001 
 1.638991604404600E-001  1.679474697033400E-001  1.720957722050100E-001  1.763465377784800E-001 
 1.807022972616000E-001  1.851656440039700E-001  1.897392354108600E-001  1.944257945255100E-001 
 1.992281116502900E-001  2.041490460080500E-001  2.091915274444500E-001  2.143585581723300E-001 
 2.196532145591900E-001  2.250786489588000E-001  2.306380915880800E-001  2.363348524503100E-001 
 2.421723233058300E-001  2.481539796914800E-001  2.542833829898600E-001  2.605641825497100E-001 
 2.670001178586900E-001  2.735950207698000E-001  2.803528177828100E-001  2.872775323820500E-001 
 2.943732874318900E-001  3.016443076314500E-001  3.090949220299500E-001  3.167295666040900E-001 
 3.245527868992100E-001  3.325692407356200E-001  3.407837009817900E-001  3.492010583960400E-001 
 3.578263245384300E-001  3.666646347545200E-001  3.757212512329600E-001  3.850015661384200E-001 
 3.945111048220300E-001  4.042555291111400E-001  4.142406406801800E-001  4.244723845049800E-001 
 4.349568524022600E-001  4.457002866565900E-001  4.567090837370100E-001  4.679897981053100E-001 
 4.795491461185200E-001  4.913940100276400E-001  5.035314420753300E-001  5.159686686945900E-001 
 5.287130948113400E-001  5.417723082531800E-001  5.551540842670400E-001  5.688663901484300E-001 
 5.829173899851000E-001  5.973154495177300E-001  6.120691411208200E-001  6.271872489065000E-001 
 6.426787739544900E-001  6.585529396711700E-001  6.748191972810500E-001  6.914872314538900E-001 
 7.085669660708001E-001  7.260685701327499E-001  7.440024638150300E-001  7.623793246712600E-001 
 7.812100939906400E-001  8.005059833122100E-001  8.202784811000200E-001  8.405393595831900E-001 
 8.613006817648901E-001  8.825748086044900E-001  9.043744063770200E-001  9.267124542145300E-001 
 9.496022518336300E-001  9.730574274539200E-001  9.970919459120300E-001  1.021720116976100E+000 
 1.046956603865400E+000  1.072816431980800E+000  1.099314997850800E+000  1.126468078297700E+000 
 1.154291839831600E+000  1.182802848275500E+000  1.212018078627900E+000  1.241954925170000E+000 
 1.272631211821700E+000  1.304065202753700E+000  1.336275613261700E+000  1.369281620909300E+000 
 1.403102876945700E+000  1.437759518006300E+000  1.473272178101000E+000  1.509662000900100E+000 
 1.546950652322400E+000  1.585160333434700E+000  1.624313793670600E+000  1.664434344374200E+000 
 1.705545872680300E+000  1.747672855735500E+000  1.790840375272100E+000  1.835074132541400E+000 
 1.880400463615100E+000  1.926846355066400E+000  1.974439460036600E+000  2.023208114699500E+000 
 2.073181355132500E+000  2.124388934604300E+000  2.176861341289000E+000  2.230629816418900E+000 
 2.285726372884400E+000  2.342183814294700E+000  2.400035754507800E+000  2.459316637644100E+000 
 2.520061758593900E+000  2.582307284031200E+000  2.646090273946700E+000  2.711448703713200E+000 
 2.778421486694900E+000  2.847048497416300E+000  2.917370595302500E+000  2.989429649006500E+000 
 3.063268561336900E+000  3.138931294801900E+000  3.216462897783600E+000  3.295909531358800E+000 
 3.377318496783400E+000  3.460738263653900E+000  3.546218498766200E+000  3.633810095685700E+000 
 3.723565205049100E+000  3.815537265613800E+000  3.909781036074500E+000  4.006352627665500E+000 
 4.105309537568900E+000  4.206710683146800E+000  4.310616437020600E+000  4.417088663015000E+000 
 4.526190752991400E+000  4.637987664590300E+000  4.752545959905700E+000  4.869933845115400E+000 
 4.990221211089700E+000  5.113479675003600E+000  5.239782622976200E+000  5.369205253763700E+000 
 5.501824623531700E+000  5.637719691732900E+000  5.776971368118700E+000  5.919662560911300E+000 
 6.065878226165800E+000  6.215705418352100E+000  6.369233342185400E+000  6.526553405737400E+000 
 6.687759274859100E+000  6.852946928948100E+000  7.022214718093100E+000  7.195663421630000E+000 
 7.373396308144300E+000  7.555519196955400E+000  7.742140521120200E+000  7.933371391991900E+000 
 8.129325665374100E+000  8.330120009308800E+000  8.535873973538800E+000  8.746710060685199E+000 
 8.962753799184100E+000  9.184133818023900E+000  9.410981923329100E+000  9.643433176835400E+000 
 9.881625976303200E+000  1.012570213791800E+001  1.037580698072400E+001  1.063208941314800E+001 
 1.089470202165300E+001  1.116380116158800E+001  1.143954705027900E+001  1.172210386242100E+001 
 1.201163982782300E+001  1.230832733157000E+001  1.261234301666000E+001  1.292386788917100E+001 
 1.324308742603400E+001  1.357019168545700E+001  1.390537542008800E+001  1.424883819296400E+001 
 1.460078449633000E+001  1.496142387338900E+001  1.533097104306200E+001  1.570964602782600E+001 
 1.609767428471300E+001  1.649528683954500E+001  1.690272042448200E+001  1.732021761896700E+001 
 1.774802699415500E+001  1.818640326091100E+001  1.863560742145600E+001  1.909590692476600E+001 
 1.956757582580700E+001  2.005089494870500E+001  2.054615205393800E+001  2.105364200967000E+001 
 2.157366696730900E+001  2.210653654140100E+001  2.265256799397400E+001  2.321208642342500E+001 
 2.378542495808400E+001  2.437292495454800E+001  2.497493620092600E+001  2.559181712508900E+001 
 2.622393500807800E+001  2.687166620277800E+001  2.753539635798600E+001  2.821552064802900E+001 
 2.891244400803500E+001  2.962658137503300E+001  3.035835793499700E+001  3.110820937599100E+001 
 3.187658214757800E+001  3.266393372662300E+001  3.347073288967100E+001  3.429745999204600E+001 
 3.514460725384900E+001  3.601267905301900E+001  3.690219222562900E+001  3.781367637360200E+001 
 3.874767418003000E+001  3.970474173227700E+001  4.068544885306400E+001  4.169037943973500E+001 
 4.272013181189600E+001  4.377531906765000E+001  4.485656944862100E+001  4.596452671400200E+001 
 4.709985052383800E+001  4.826321683177600E+001  4.945531828752100E+001  5.067686464922300E+001 
 5.192858320605900E+001  5.321121921124900E+001  5.452553632576600E+001  5.587231707301300E+001 
 5.725236330471600E+001  5.866649667834300E+001  6.011555914629800E+001  6.160041345721100E+001 
 6.312194366960400E+001  6.468105567824399E+001  6.627867775349600E+001  6.791576109400800E+001 
 6.959328039303000E+001  7.131223441873701E+001  7.307364660888000E+001  7.487856568012000E+001 
 7.672806625241800E+001
    </PP_R>
    <PP_RAB type="real" size="561" columns="4">
 2.178561323529915E-006  2.232371788221100E-006  2.287511371390169E-006  2.344012902263516E-006 
 2.401910020949418E-006  2.461237198466941E-006  2.522029757269034E-006  2.584323892273470E-006 
 2.648156692412804E-006  2.713566162715293E-006  2.780591246934328E-006  2.849271850733695E-006 
 2.919648865446720E-006  2.991764192423208E-006  3.065660767976129E-006  3.141382588945142E-006 
 3.218974738892063E-006  3.298483414942694E-006  3.379955955291844E-006  3.463440867387630E-006 
 3.548987856811921E-006  3.636647856875206E-006  3.726473058940035E-006  3.818516943495988E-006 
 3.912834312000307E-006  4.009481319506641E-006  4.108515508098507E-006  4.209995841148438E-006 
 4.313982738424782E-006  4.420538112063972E-006  4.529725403431914E-006  4.641609620896730E-006 
 4.756257378532832E-006  4.873736935782685E-006  4.994118238096542E-006  5.117472958577423E-006 
 5.243874540654334E-006  5.373398241808565E-006  5.506121178381153E-006  5.642122371487133E-006 
 5.781482794062903E-006  5.924285419076256E-006  6.070615268927370E-006  6.220559466070026E-006 
 6.374207284881872E-006  6.531650204818347E-006  6.692981964877386E-006  6.858298619410006E-006 
 7.027698595309250E-006  7.201282750613596E-006  7.379154434553607E-006  7.561419549086988E-006 
 7.748186611949600E-006  7.939566821264648E-006  8.135674121749825E-006  8.336625272557053E-006 
 8.542539916789221E-006  8.753540652733939E-006  8.969753106856554E-006  9.191306008596018E-006 
 9.418331267008138E-006  9.650964049303421E-006  9.889342861321079E-006  1.013360962999577E-005 
 1.038390978785661E-005  1.064039235961672E-005  1.090321005089933E-005  1.117251933915633E-005 
 1.144848056683368E-005  1.173125803683446E-005  1.202102011034413E-005  1.231793930706969E-005 
 1.262219240795435E-005  1.293396056043091E-005  1.325342938627336E-005  1.358078909211445E-005 
 1.391623458268953E-005  1.425996557688210E-005  1.461218672663108E-005  1.497310773877872E-005 
 1.534294349992676E-005  1.572191420437482E-005  1.611024548522292E-005  1.650816854870799E-005 
 1.691592031186095E-005  1.733374354356395E-005  1.776188700908990E-005  1.820060561821444E-005 
 1.865016057698442E-005  1.911081954323600E-005  1.958285678595392E-005  2.006655334856680E-005 
 2.056219721627644E-005  2.107008348751848E-005  2.159051454966015E-005  2.212380025903680E-005 
 2.267025812543501E-005  2.323021350113320E-005  2.380399977461133E-005  2.439195856904423E-005 
 2.499443994570075E-005  2.561180261235908E-005  2.624441413688310E-005  2.689265116606395E-005 
 2.755689964986701E-005  2.823755507121779E-005  2.893502268147794E-005  2.964971774170885E-005 
 3.038206576993042E-005  3.113250279444793E-005  3.190147561346931E-005  3.268944206112245E-005 
 3.349687128003370E-005  3.432424400065038E-005  3.517205282746616E-005  3.604080253230278E-005 
 3.693101035485081E-005  3.784320631061570E-005  3.877793350648884E-005  3.973574846409981E-005 
 4.071722145116187E-005  4.172293682100619E-005  4.275349336048520E-005  4.380950464648907E-005 
 4.489159941125600E-005  4.600042191671517E-005  4.713663233805796E-005  4.830090715680786E-005 
 4.949393956358208E-005  5.071643987080105E-005  5.196913593560913E-005  5.325277359321913E-005 
 5.456811710097311E-005  5.591594959336615E-005  5.729707354832327E-005  5.871231126496631E-005 
 6.016250535320988E-005  6.164851923543520E-005  6.317123766054934E-005  6.473156723076667E-005 
 6.633043694136598E-005  6.796879873381640E-005  6.964762806254291E-005  7.136792447568751E-005 
 7.313071221023718E-005  7.493704080183059E-005  7.678798570963446E-005  7.868464895666242E-005 
 8.062815978589281E-005  8.261967533260519E-005  8.466038131332084E-005  8.675149273175738E-005 
 8.889425460223183E-005  9.108994269090703E-005  9.333986427537248E-005  9.564535892297626E-005 
 9.800779928837190E-005  1.004285919307951E-004  1.029091781514874E-004  1.054510348518277E-004 
 1.080556754126681E-004  1.107246505953602E-004  1.134595494650669E-004  1.162620003368525E-004 
 1.191336717451743E-004  1.220762734372791E-004  1.250915573911816E-004  1.281813188587424E-004 
 1.313473974345538E-004  1.345916781511873E-004  1.379160926015225E-004  1.413226200887797E-004 
 1.448132888049709E-004  1.483901770384551E-004  1.520554144113032E-004  1.558111831472644E-004 
 1.596597193710021E-004  1.636033144394638E-004  1.676443163061201E-004  1.717851309188808E-004 
 1.760282236525781E-004  1.803761207767952E-004  1.848314109599831E-004  1.893967468106937E-004 
 1.940748464569187E-004  1.988684951644051E-004  2.037805469949636E-004  2.088139265057407E-004 
 2.139716304904312E-004  2.192567297635462E-004  2.246723709887048E-004  2.302217785521273E-004 
 2.359082564823629E-004  2.417351904174788E-004  2.477060496207914E-004  2.538243890464187E-004 
 2.600938514558686E-004  2.665181695868199E-004  2.731011683756327E-004  2.798467672344919E-004 
 2.867589823851835E-004  2.938419292501125E-004  3.010998249025884E-004  3.085369905776712E-004 
 3.161578542449443E-004  3.239669532447999E-004  3.319689369899463E-004  3.401685697335990E-004 
 3.485707334060163E-004  3.571804305211363E-004  3.660027871550217E-004  3.750430559977492E-004 
 3.843066194808894E-004  3.937989929820659E-004  4.035258281087158E-004  4.134929160630065E-004 
 4.237061910897576E-004  4.341717340096917E-004  4.448957758397189E-004  4.558847015029639E-004 
 4.671450536300972E-004  4.786835364547532E-004  4.905070198051803E-004  5.026225431943702E-004 
 5.150373200112746E-004  5.277587418155518E-004  5.407943827384030E-004  5.541520039920379E-004 
 5.678395584906467E-004  5.818651955853452E-004  5.962372659163114E-004  6.109643263844577E-004 
 6.260551452461519E-004  6.415187073337190E-004  6.573642194048729E-004  6.736011156241749E-004 
 6.902390631800830E-004  7.072879680406414E-004  7.247579808512258E-004  7.426595029782732E-004 
 7.610031927018273E-004  7.797999715615576E-004  7.990610308591353E-004  8.187978383213539E-004 
 8.390221449278758E-004  8.597459919076079E-004  8.809817179077292E-004  9.027419663400338E-004 
 9.250396929086372E-004  9.478881733234881E-004  9.713010112045654E-004  9.952921461813234E-004 
 1.019875862192019E-003  1.045066795988149E-003  1.070879945849061E-003  1.097330680511534E-003 
 1.124434748320175E-003  1.152208286603682E-003  1.180667831282793E-003  1.209830326715466E-003 
 1.239713135785329E-003  1.270334050239231E-003  1.301711301280159E-003  1.333863570421771E-003 
 1.366810000611184E-003  1.400570207626280E-003  1.435164291754642E-003  1.470612849760989E-003 
 1.506936987150094E-003  1.544158330732682E-003  1.582299041501782E-003  1.621381827826894E-003 
 1.661429958974212E-003  1.702467278960877E-003  1.744518220751201E-003  1.787607820803753E-003 
 1.831761733977618E-003  1.877006248806850E-003  1.923368303152385E-003  1.970875500240262E-003 
 2.019556125096189E-003  2.069439161386051E-003  2.120554308672294E-003  2.172932000096493E-003 
 2.226603420498887E-003  2.281600524985220E-003  2.337956057952340E-003  2.395703572583778E-003 
 2.454877450826694E-003  2.515512923862086E-003  2.577646093081302E-003  2.641313951580485E-003 
 2.706554406184449E-003  2.773406300017303E-003  2.841909435627691E-003  2.912104598687668E-003 
 2.984033582275227E-003  3.057739211757541E-003  3.133265370287875E-003  3.210657024933958E-003 
 3.289960253450025E-003  3.371222271710104E-003  3.454491461821315E-003  3.539817400928427E-003 
 3.627250890731377E-003  3.716843987732346E-003  3.808650034229228E-003  3.902723690074764E-003 
 3.999120965219648E-003  4.097899253060590E-003  4.199117364611125E-003  4.302835563517173E-003 
 4.409115601935840E-003  4.518020757303863E-003  4.629615870009071E-003  4.743967381998338E-003 
 4.861143376333695E-003  4.981213617729085E-003  5.104249594087021E-003  5.230324559061021E-003 
 5.359513575669913E-003  5.491893560988911E-003  5.627543331945279E-003  5.766543652244436E-003 
 5.908977280454809E-003  6.054929019281946E-003  6.204485766058219E-003  6.357736564479868E-003 
 6.514772657622574E-003  6.675687542265861E-003  6.840577024559729E-003  7.009539277066466E-003 
 7.182674897210090E-003  7.360086967170992E-003  7.541881115260192E-003  7.728165578807126E-003 
 7.919051268603637E-003  8.114651834938135E-003  8.315083735261110E-003  8.520466303522054E-003 
 8.730921821219239E-003  8.946575590203129E-003  9.167556007281230E-003  9.393994640661220E-003 
 9.626026308285332E-003  9.863789158100123E-003  1.010742475030507E-002  1.035707814163759E-002 
 1.061289797173621E-002  1.087503655163796E-002  1.114364995446347E-002  1.141889810833861E-002 
 1.170094489161480E-002  1.198995823043750E-002  1.228611019872948E-002  1.258957712063809E-002 
 1.290053967551769E-002  1.321918300550298E-002  1.354569682573906E-002  1.388027553733467E-002 
 1.422311834310692E-002  1.457442936618162E-002  1.493441777152636E-002  1.530329789048295E-002 
 1.568128934837787E-002  1.606861719528290E-002  1.646551204000644E-002  1.687221018739455E-002 
 1.728895377902317E-002  1.771599093736507E-002  1.815357591351802E-002  1.860196923858188E-002 
 1.906143787877485E-002  1.953225539438062E-002  2.001470210262178E-002  2.050906524455653E-002 
 2.101563915609696E-002  2.153472544325273E-002  2.206663316170105E-002  2.261167900079501E-002 
 2.317018747211467E-002  2.374249110267588E-002  2.432893063291193E-002  2.492985521954591E-002 
 2.554562264346845E-002  2.617659952276028E-002  2.682316153097427E-002  2.748569362078898E-002 
 2.816459025322117E-002  2.886025563247718E-002  2.957310394659925E-002  3.030355961408003E-002 
 3.105205753654783E-002  3.181904335770067E-002  3.260497372863547E-002  3.341031657973364E-002 
 3.423555139925161E-002  3.508116951881413E-002  3.594767440592748E-002  3.683558196375402E-002 
 3.774542083826039E-002  3.867773273296388E-002  3.963307273146962E-002  4.061200962793536E-002 
 4.161512626574676E-002  4.264301988451062E-002  4.369630247565640E-002  4.477560114680704E-002 
 4.588155849513141E-002  4.701483298996133E-002  4.817609936481484E-002  4.936604901912566E-002 
 5.058539042989617E-002  5.183484957351527E-002  5.311517035798046E-002  5.442711506582409E-002 
 5.577146480794880E-002  5.714901998870648E-002  5.856060078242804E-002  6.000704762175298E-002 
 6.148922169801004E-002  6.300800547395165E-002  6.456430320915653E-002  6.615904149842310E-002 
 6.779316982343375E-002  6.946766111807345E-002  7.118351234769028E-002  7.294174510267892E-002 
 7.474340620671362E-002  7.658956834001893E-002  7.848133067801966E-002  8.041981954576539E-002 
 8.240618908854673E-002  8.444162195903261E-002  8.652733002142191E-002  8.866455507295040E-002 
 9.085456958325139E-002  9.309867745195738E-002  9.539821478502168E-002  9.775455069021073E-002 
 1.001690880922605E-001  1.026432645681380E-001  1.051785532029728E-001  1.077764634670861E-001 
 1.104385421147214E-001  1.131663741049553E-001  1.159615835453482E-001  1.188258346589190E-001 
 1.217608327749931E-001  1.247683253445350E-001  1.278501029805453E-001  1.310080005241644E-001 
 1.342438981371122E-001  1.375597224210981E-001  1.409574475648991E-001  1.444390965197538E-001 
 1.480067422037915E-001  1.516625087362253E-001  1.554085727020101E-001  1.592471644477503E-001 
 1.631805694096093E-001  1.672111294740262E-001  1.713412443720342E-001  1.755733731080235E-001 
 1.799100354237926E-001  1.843538132987587E-001  1.889073524872381E-001  1.935733640936736E-001 
 1.983546261867874E-001  2.032539854536000E-001  2.082743588943058E-001  2.134187355589949E-001 
 2.186901783273014E-001  2.240918257319847E-001  2.296268938275649E-001  2.352986781051075E-001 
 2.411105554543028E-001  2.470659861740268E-001  2.531685160325113E-001  2.594217783785172E-001 
 2.658294963044725E-001  2.723954848631971E-001  2.791236533393126E-001  2.860180075767963E-001 
 2.930826523639481E-001  3.003217938773320E-001  3.077397421861076E-001  3.153409138180922E-001 
 3.231298343894106E-001  3.311111412988281E-001  3.392895864889143E-001  3.476700392751863E-001 
 3.562574892452782E-001  3.650570492296281E-001  3.740739583456070E-001  3.833135851167525E-001 
 3.927814306691289E-001  4.024831320066463E-001  4.124244653672163E-001  4.226113496617938E-001 
 4.330498499984283E-001  4.437461812933985E-001  4.547067119713576E-001  4.659379677570509E-001 
 4.774466355606326E-001  4.892395674589941E-001  5.013237847752309E-001  5.137064822591725E-001 
 5.263950323709777E-001  5.393969896705278E-001  5.527200953153996E-001  5.663722816696861E-001 
 5.803616770269372E-001  5.946966104494861E-001  6.093856167276046E-001  6.244374414607796E-001 
 6.398610462648439E-001  6.556656141075971E-001  6.718605547760396E-001  6.884555104790259E-001 
 7.054603615878502E-001  7.228852325190587E-001  7.407404977622961E-001  7.590367880570145E-001 
 7.777849967220233E-001  7.969962861410530E-001  8.166820944087470E-001  8.368541421406462E-001 
 8.575244394515071E-001  8.787052931059576E-001  9.004093138456852E-001  9.226494238976728E-001 
 9.454388646679461E-001  9.687912046252506E-001  9.927203473794884E-001  1.017240539959769E+000 
 1.042366381296765E+000  1.068112830914799E+000  1.094495217838396E+000  1.121529249719005E+000 
 1.149231022187069E+000  1.177617028435070E+000  1.206704169037419E+000  1.236509762012649E+000 
 1.267051553134366E+000  1.298347726496794E+000  1.330416915341243E+000  1.363278213150186E+000 
 1.396951185014986E+000  1.431455879284868E+000  1.466812839503203E+000  1.503043116638918E+000 
 1.540168281619897E+000  1.578210438175927E+000  1.617192235998857E+000  1.657136884228045E+000 
 1.698068165268478E+000  1.740010448950589E+000  1.782988707039673E+000  1.827028528103569E+000 
 1.872156132747704E+000
    </PP_RAB>
  </PP_MESH>
  <PP_LOCAL type="real" size="561" columns="4">
-2.366070741986200E+001 -2.366105849678400E+001 -2.366140111113200E+001 -2.366173546689000E+001 
-2.366206176313000E+001 -2.366238019412000E+001 -2.366269094945400E+001 -2.366299421414600E+001 
-2.366329016875800E+001 -2.366357898949400E+001 -2.366386084831600E+001 -2.366413591303400E+001 
-2.366440434742200E+001 -2.366466631130000E+001 -2.366492196063400E+001 -2.366517144763600E+001 