<UPF version="2.0.1">
  <PP_INFO>
    Generated using FHI98PP, converted with fhi2upf.x v.5.0.2
    Origin: Abinit web site
    Date: 08-Sep-2012 (PG)
    Pseudopotential type: SL
    Element: Zr
    Functional: PBE

    Suggested minimum cutoff for wavefunctions:   0. Ry
    Suggested minimum cutoff for charge density:   0. Ry
    The Pseudo was generated with a Non-Relativistic Calculation
    L component and cutoff radius for Local Potential:  1   0.0000

    Valence configuration: 
    nl pn  l   occ       Rcut    Rcut US       E pseu
    5s  5  0  2.00      0.000      0.000     0.000000
    5p  5  1  0.00      0.000      0.000     0.000000
    4d  4  2  2.00      0.000      0.000     0.000000
    4f  4  3  0.00      0.000      0.000     0.000000

    Generation configuration: not available.
    Comment:
    zirconium, fhi98PP : Trouiller-Martins-type, GGA Perdew/Burke/Ernzerhof (1996),
  </PP_INFO>
  <!--                               -->
  <!-- END OF HUMAN READABLE SECTION -->
  <!--                               -->
  <PP_HEADER generated="Generated using FHI98PP, converted with fhi2upf.x v.5.0.2"
             author="unknown"
             date="unknown"
             comment="zirconium, fhi98PP : Trouiller-Martins-type, GGA Perdew/Burke/Ernzerhof (1996),"
             element="Zr"
             pseudo_type="SL"
             relativistic="no"
             is_ultrasoft="F"
             is_paw="F"
             is_coulomb="F"
             has_so="F"
             has_wfc="F"
             has_gipaw="F"
             paw_as_gipaw="F"
             core_correction="F"
             functional="PBE"
             z_valence="4.000000000000000E+000"
             total_psenergy="0.000000000000000E+000"
             wfc_cutoff="0.000000000000000E+000"
             rho_cutoff="0.000000000000000E+000"
             l_max="3"
             l_max_rho="0"
             l_local="1"
             mesh_size="539"
             number_of_wfc="4"
             number_of_proj="3"/>
  <PP_MESH dx="2.439988682353512E-002" mesh="539" xmin="-5.075173815233827E+000" rmax="7.849899653508700E+001"
zmesh="4.000000000000000E+001">
    <PP_R type="real" size="539" columns="4">
 1.562500000000000E-004  1.601093750000000E-004  1.640640765625000E-004  1.681164592535900E-004 
 1.722689357971600E-004  1.765239785113500E-004  1.808841207805800E-004  1.853519585638600E-004 
 1.899301519403900E-004  1.946214266933100E-004  1.994285759326400E-004  2.043544617581700E-004 
 2.094020169636000E-004  2.145742467826000E-004  2.198742306781300E-004  2.253051241758800E-004 
 2.308701607430300E-004  2.365726537133800E-004  2.424159982601000E-004  2.484036734171200E-004 
 2.545392441505300E-004  2.608263634810400E-004  2.672687746590300E-004  2.738703133931000E-004 
 2.806349101339100E-004  2.875665924142200E-004  2.946694872468500E-004  3.019478235818500E-004 
 3.094059348243200E-004  3.170482614144800E-004  3.248793534714200E-004  3.329038735021600E-004 
 3.411265991776700E-004  3.495524261773600E-004  3.581863711039400E-004  3.670335744702000E-004 
 3.760993037596200E-004  3.853889565624800E-004  3.949080637895700E-004  4.046622929651800E-004 
 4.146574516014200E-004  4.248994906559700E-004  4.353945080751700E-004  4.461487524246300E-004 
 4.571686266095200E-004  4.684606916867700E-004  4.800316707714400E-004  4.918884530394900E-004 
 5.040380978295700E-004  5.164878388459600E-004  5.292450884654500E-004  5.423174421505500E-004 
 5.557126829716700E-004  5.694387862410700E-004  5.835039242612200E-004  5.979164711904700E-004 
 6.126850080288800E-004  6.278183277271900E-004  6.433254404220500E-004  6.592155788004800E-004 
 6.754982035968500E-004  6.921830092256900E-004  7.092799295535700E-004  7.267991438135400E-004 
 7.447510826657300E-004  7.631464344075800E-004  7.819961513374399E-004  8.013114562754800E-004 
 8.211038492454800E-004  8.413851143218500E-004  8.621673266455999E-004  8.834628596137400E-004 
 9.052843922462001E-004  9.276449167346800E-004  9.505577461780300E-004  9.740365225086300E-004 
 9.980952246145900E-004  1.022748176662600E-003  1.048010056626100E-003  1.073895905024800E-003 
 1.100421133878900E-003  1.127601535885700E-003  1.155453293822100E-003  1.183992990179500E-003 
 1.213237617036900E-003  1.243204586177800E-003  1.273911739456300E-003  1.305377359420900E-003 
 1.337620180198600E-003  1.370659398649500E-003  1.404514685796200E-003  1.439206198535300E-003 
 1.474754591639100E-003  1.511181030052600E-003  1.548507201494900E-003  1.586755329371900E-003 
 1.625948186007300E-003  1.666109106201700E-003  1.707262001124900E-003  1.749431372552700E-003 
 1.792642327454700E-003  1.836920592942900E-003  1.882292531588600E-003  1.928785157118800E-003 
 1.976426150499600E-003  2.025243876417000E-003  2.075267400164500E-003  2.126526504948500E-003 
 2.179051709620800E-003  2.232874286848400E-003  2.288026281733600E-003  2.344540530892400E-003 
 2.402450682005400E-003  2.461791213850900E-003  2.522597456833100E-003  2.584905614016800E-003 
 2.648752782683100E-003  2.714176976415300E-003  2.781217147732800E-003  2.849913211281800E-003 
 2.920306067600400E-003  2.992437627470200E-003  3.066350836868700E-003  3.142089702539300E-003 
 3.219699318192100E-003  3.299225891351400E-003  3.380716770867800E-003  3.464220475108200E-003 
 3.549786720843400E-003  3.637466452848200E-003  3.727311874233600E-003  3.819376477527200E-003 
 3.913715076522100E-003  4.010383838912200E-003  4.109440319733300E-003  4.210943495630700E-003 
 4.314953799972800E-003  4.421533158832100E-003  4.530745027855300E-003  4.642654430043300E-003 
 4.757327994465400E-003  4.874833995928700E-003  4.995242395628100E-003  5.118624882800100E-003 
 5.245054917405300E-003  5.374607773865200E-003  5.507360585879700E-003  5.643392392350900E-003 
 5.782784184441900E-003  5.925618953797700E-003  6.071981741956500E-003  6.221959690982800E-003 
 6.375642095350100E-003  6.533120455105200E-003  6.694488530346300E-003  6.859842397045900E-003 
 7.029280504252900E-003  7.202903732707900E-003  7.380815454905800E-003  7.563121596642000E-003 
 7.749930700079100E-003  7.941353988371000E-003  8.137505431883799E-003  8.338501816051299E-003 
 8.544462810907800E-003  8.755511042337200E-003  8.971772165082900E-003  9.193374937560500E-003 
 9.420451298518200E-003  9.653136445591600E-003  9.891568915797700E-003  1.013589066801800E-002 
 1.038624716751800E-002  1.064278747255600E-002  1.090566432312800E-002  1.117503423190900E-002 
 1.145105757743700E-002  1.173389869960000E-002  1.202372599748000E-002  1.232071202961800E-002 
 1.262503361674900E-002  1.293687194708300E-002  1.325641268417600E-002  1.358384607747500E-002 
 1.391936707558900E-002  1.426317544235600E-002  1.461547587578200E-002  1.497647812991400E-002 
 1.534639713972300E-002  1.572545314907400E-002  1.611387184185600E-002  1.651188447635000E-002 
 1.691972802291600E-002  1.733764530508200E-002  1.776588514411700E-002  1.820470250717700E-002 
 1.865435865910400E-002  1.911512131798400E-002  1.958726481453800E-002  2.007107025545700E-002 
 2.056682569076700E-002  2.107482628532900E-002  2.159537449457700E-002  2.212878024459300E-002 
 2.267536111663400E-002  2.323544253621500E-002  2.380935796685900E-002  2.439744910864100E-002 
 2.500006610162400E-002  2.561756773433400E-002  2.625032165737300E-002  2.689870460231000E-002 
 2.756310260598700E-002  2.824391124035500E-002  2.894153584799100E-002  2.965639178343700E-002 
 3.038890466048800E-002  3.113951060560200E-002  3.190865651756000E-002  3.269680033354400E-002 
 3.350441130178200E-002  3.433197026093600E-002  3.517996992638100E-002  3.604891518356300E-002 
 3.693932338859700E-002  3.785172467629500E-002  3.878666227580000E-002  3.974469283401200E-002 
 4.072638674701200E-002  4.173232849966300E-002  4.276311701360500E-002  4.381936600384100E-002 
 4.490170434413600E-002  4.601077644143600E-002  4.714724261954000E-002  4.831177951224200E-002 
 4.950508046619500E-002  5.072785595371000E-002  5.198083399576600E-002  5.326476059546200E-002 
 5.458040018217000E-002  5.592853606666900E-002  5.730997090751600E-002  5.872552718893100E-002 
 6.017604771049800E-002  6.166239608894700E-002  6.318545727234400E-002  6.474613806697101E-002 
 6.634536767722500E-002  6.798409825885300E-002  6.966330548584700E-002  7.138398913134700E-002 
 7.314717366289100E-002  7.495390885236500E-002  7.680527040101801E-002  7.870236057992300E-002 
 8.064630888624701E-002  8.263827271573800E-002  8.467943805181601E-002  8.677102017169600E-002 
 8.891426436993700E-002  9.111044669987500E-002  9.336087473336099E-002  9.566688833927500E-002 
 9.802986048125600E-002  1.004511980351400E-001  1.029323426266100E-001  1.054747714894900E-001 
 1.080799983452800E-001  1.107495743044100E-001  1.134850887897300E-001  1.162881704828300E-001 
 1.191604882937600E-001  1.221037523546100E-001  1.251197150377700E-001  1.282101719992100E-001 
 1.313769632475900E-001  1.346219742398000E-001  1.379471370035200E-001  1.413544312875100E-001 
 1.448458857403100E-001  1.484235791181000E-001  1.520896415223200E-001  1.558462556679200E-001 
 1.596956581829100E-001  1.636401409400300E-001  1.676820524212500E-001  1.718237991160600E-001 
 1.760678469542200E-001  1.804167227739900E-001  1.848730158265100E-001  1.894393793174200E-001 
 1.941185319865600E-001  1.989132597266300E-001  2.038264172418800E-001  2.088609297477500E-001 
 2.140197947125200E-001  2.193060836419200E-001  2.247229439078800E-001  2.302736006224000E-001 
 2.359613585577800E-001  2.417896041141500E-001  2.477618073357700E-001  2.538815239769700E-001 
 2.601523976192000E-001  2.665781618403900E-001  2.731626424378500E-001  2.799097597060600E-001 
 2.868235307708000E-001  2.939080719808400E-001  3.011676013587700E-001  3.086064411123300E-001 
 3.162290202078100E-001  3.240398770069400E-001  3.320436619690100E-001  3.402451404196500E-001 
 3.486491953880100E-001  3.572608305140900E-001  3.660851730277900E-001  3.751274768015800E-001 
 3.843931254785800E-001  3.938876356779000E-001  4.036166602791400E-001  4.135859917880400E-001 
 4.238015657852000E-001  4.342694644601000E-001  4.449959202322600E-001  4.559873194620000E-001 
 4.672502062527100E-001  4.787912863471500E-001  4.906174311199300E-001  5.027356816685900E-001 
 5.151532530057999E-001  5.278775383550500E-001  5.409161135524100E-001  5.542767415571600E-001 
 5.679673770736200E-001  5.819961712873400E-001  5.963714767181399E-001  6.111018521930700E-001 
 6.261960679422400E-001  6.416631108204200E-001  6.575121896576800E-001  6.737527407422300E-001 
 6.903944334385600E-001  7.074471759444900E-001  7.249211211903200E-001  7.428266728837200E-001 
 7.611744917039500E-001  7.799755016490399E-001  7.992408965397700E-001  8.189821466843000E-001 
 8.392110057074000E-001  8.599395175483699E-001  8.811800236318200E-001  9.029451702155300E-001 
 9.252479159198500E-001  9.481015394430700E-001  9.715196474673100E-001  9.955161827597599E-001 
 1.020105432473900E+000  1.045302036656000E+000  1.071120996961400E+000  1.097577685586400E+000 
 1.124687854420400E+000  1.152467644424500E+000  1.180933595241800E+000  1.210102655044300E+000 
 1.239992190623900E+000  1.270619997732300E+000  1.302004311676300E+000  1.334163818174700E+000 
 1.367117664483600E+000  1.400885470796400E+000  1.435487341925000E+000  1.470943879270600E+000 
 1.507276193088600E+000  1.544505915057900E+000  1.582655211159800E+000  1.621746794875400E+000 
 1.661803940708800E+000  1.702850498044400E+000  1.744910905346100E+000  1.788010204708100E+000 
 1.832174056764400E+000  1.877428755966500E+000  1.923801246238800E+000  1.971319137020900E+000 
 2.020010719705400E+000  2.069904984482100E+000  2.121031637598800E+000  2.173421119047500E+000 
 2.227104620688000E+000  2.282114104818900E+000  2.338482323208000E+000  2.396242836591200E+000 
 2.455430034655000E+000  2.516079156511000E+000  2.578226311676800E+000  2.641908501575200E+000 
 2.707163641564100E+000  2.774030583510800E+000  2.842549138923500E+000  2.912760102654900E+000 
 2.984705277190500E+000  3.058427497537100E+000  3.133970656726200E+000  3.211379731947400E+000 
 3.290700811326500E+000  3.371981121366200E+000  3.455269055064000E+000  3.540614200724100E+000 
 3.628067371482000E+000  3.717680635557600E+000  3.809507347255800E+000  3.903602178733000E+000 
 4.000021152547800E+000  4.098821675015700E+000  4.200062570388600E+000  4.303804115877200E+000 
 4.410108077539300E+000  4.519037747054600E+000  4.630657979406800E+000  4.745035231498100E+000 
 4.862237601716200E+000  4.982334870478500E+000  5.105398541779400E+000  5.231501885761300E+000 
 5.360719982339600E+000  5.493129765903400E+000  5.628810071121200E+000  5.767841679877900E+000 
 5.910307369370900E+000  6.056291961394400E+000  6.205882372840800E+000  6.359167667450000E+000 
 6.516239108836000E+000  6.677190214824200E+000  6.842116813130400E+000  7.011117098414700E+000 
 7.184291690745500E+000  7.361743695507000E+000  7.543578764786000E+000  7.729905160276200E+000 
 7.920833817735000E+000  8.116478413033100E+000  8.316955429835000E+000  8.522384228951900E+000 
 8.732887119407000E+000  8.948589431256400E+000  9.169619590208400E+000  9.396109194086600E+000 
 9.628193091180499E+000  9.866009460532700E+000  1.010969989420800E+001  1.035940948159500E+001 
 1.061528689579000E+001  1.087748448211600E+001  1.114615834882400E+001  1.142146846004000E+001 
 1.170357873100300E+001  1.199265712565900E+001  1.228887575666300E+001  1.259241098785300E+001 
 1.290344353925200E+001  1.322215859467200E+001  1.354874591196000E+001  1.388339993598600E+001 
 1.422631991440500E+001  1.457771001629000E+001  1.493777945369300E+001  1.530674260619900E+001 
 1.568481914857200E+001  1.607223418154200E+001  1.646921836582600E+001  1.687600805946200E+001 
 1.729284545853100E+001  1.771997874135600E+001  1.815766221626800E+001  1.860615647301000E+001 
 1.906572853789300E+001  1.953665203277900E+001  2.001920733798900E+001  2.051368175923700E+001 
 2.102036969869000E+001  2.153957283024800E+001  2.207160027915500E+001  2.261676880605000E+001 
 2.317540299555900E+001  2.374783544955000E+001  2.433440698515300E+001  2.493546683768700E+001 
 2.555137286857800E+001  2.618249177843200E+001  2.682919932535900E+001  2.749188054869500E+001 
 2.817092999824800E+001  2.886675196920500E+001  2.957976074284400E+001  3.031038083319200E+001 
 3.105904723977200E+001  3.182620570659400E+001  3.261231298754700E+001  3.341783711834000E+001 
 3.424325769516300E+001  3.508906616023300E+001  3.595576609439100E+001  3.684387351692200E+001 
 3.775391719279000E+001  3.868643894745200E+001  3.964199398945400E+001  4.062115124099400E+001 
 4.162449367664600E+001  4.265261867046000E+001  4.370613835162000E+001  4.478567996890500E+001 
 4.589188626413700E+001  4.702541585486100E+001  4.818694362647600E+001  4.937716113405000E+001 
 5.059677701406100E+001  5.184651740630900E+001  5.312712638624400E+001  5.443936640798500E+001 
 5.578401875826200E+001  5.716188402159100E+001  5.857378255692400E+001  6.002055498608000E+001 
 6.150306269423600E+001  6.302218834278400E+001  6.457883639485100E+001  6.617393365380400E+001 
 6.780842981505199E+001  6.948329803148400E+001  7.119953549286200E+001  7.295816401953600E+001 
 7.476023067081800E+001  7.660680836838699E+001  7.849899653508700E+001
    </PP_R>
    <PP_RAB type="real" size="539" columns="4">
 3.812482316177363E-006  3.906650629386943E-006  4.003144899932801E-006  4.102022578961050E-006 
 4.203342536661542E-006  4.307165097317086E-006  4.413552075220810E-006  4.522566811478755E-006 
 4.634274211722346E-006  4.748740784751701E-006  4.866034682135196E-006  4.986225738783784E-006 
 5.109385514531822E-006  5.235587336740736E-006  5.364906343958226E-006  5.497419530653999E-006 
 5.633205793061293E-006  5.772345976149838E-006  5.914922921760727E-006  6.061021517928108E-006 
 6.210728749421106E-006  6.364133749531610E-006  6.521327853145243E-006  6.682404651117735E-006 
 6.847460046000353E-006  7.016592309136621E-006  7.189902139172266E-006  7.367492722009890E-006 
 7.549469792243492E-006  7.735941696111890E-006  7.927019456005911E-006  8.122816836569156E-006 
 8.323450412432577E-006  8.529039637619700E-006  8.739706916668886E-006  8.955577677510429E-006 
 9.176780446145086E-006  9.403446923164805E-006  9.635712062166897E-006  9.873714150102605E-006 
 1.011759488961014E-005  1.036749948338339E-005  1.062357672062290E-005  1.088597906562236E-005 
 1.115486274854327E-005  1.143038785843217E-005  1.171271843853561E-005  1.200202258396733E-005 
 1.229847254179143E-005  1.260224481357367E-005  1.291352026046881E-005  1.323248421090247E-005 
 1.355932657091180E-005  1.389424193721332E-005  1.423742971306238E-005  1.458909422697497E-005 
 1.494944485438138E-005  1.531869614228452E-005  1.569706793699891E-005  1.608478551504291E-005 
 1.648207971726443E-005  1.688918708628080E-005  1.730635000731207E-005  1.773381685249260E-005 
 1.817184212874906E-005  1.862068662932932E-005  1.908061758907358E-005  1.955190884352383E-005 
 2.003484099195876E-005  2.052970156446030E-005  2.103678519310248E-005  2.155639378737195E-005 
 2.208883671392006E-005  2.263443098075385E-005  2.319350142597856E-005  2.376638091120029E-005 
 2.435341051970686E-005  2.495493975954435E-005  2.557132677160347E-005  2.620293854286294E-005 
 2.685015112487135E-005  2.751334985765546E-005  2.819292959914011E-005  2.888929496023873E-005 
 2.960286054575580E-005  3.033405120123814E-005  3.108330226590648E-005  3.185105983187509E-005 
 3.263778100972250E-005  3.344393420066250E-005  3.426999937542027E-005  3.511646835999154E-005 
 3.598384512848279E-005  3.687264610315667E-005  3.778340046190465E-005  3.871665045331555E-005 
 3.967295171951035E-005  4.065287362698274E-005  4.165699960556965E-005  4.268592749582759E-005 
 4.374026990497327E-005  4.482065457162778E-005  4.592772473954725E-005  4.706213954061313E-005 
 4.822457438726544E-005  4.941572137463235E-005  5.063628969258577E-005  5.188700604799109E-005 
 5.316861509737824E-005  5.448187989028266E-005  5.582758232357372E-005  5.720652360696551E-005 
 5.861952474005652E-005  6.006742700113511E-005  6.155109244806516E-005  6.307140443153048E-005 
 6.462926812099136E-005  6.622561104357808E-005  6.786138363635548E-005  6.953755981217346E-005 
 7.125513753953265E-005  7.301513943676083E-005  7.481861338084849E-005  7.666663313135405E-005 
 7.856029896970044E-005  8.050073835425094E-005  8.248910659160143E-005  8.452658752441314E-005 
 8.661439423626682E-005  8.875376977390183E-005  9.094598788731842E-005  9.319235378813591E-005 
 9.549420492670233E-005  9.785291178839199E-005  1.002698787095645E-004  1.027465447136904E-004 
 1.052843843681191E-004  1.078849086620110E-004  1.105496659059638E-004  1.132802426538405E-004 
 1.160782646473911E-004  1.189453977841818E-004  1.218833491094501E-004  1.248938678324532E-004 
 1.279787463679157E-004  1.311398214032029E-004  1.343789749918628E-004  1.376981356741611E-004 
 1.410992796253112E-004  1.445844318320585E-004  1.481556672983102E-004  1.518151122805779E-004 
 1.555649455539088E-004  1.594073997090892E-004  1.633447624819037E-004  1.673793781152078E-004 
 1.715136487546526E-004  1.757500358788914E-004  1.800910617651004E-004  1.845393109906990E-004 
 1.890974319721704E-004  1.937681385418816E-004  1.985542115638670E-004  2.034585005894938E-004 
 2.084839255540551E-004  2.136334785152397E-004  2.189102254345654E-004  2.243173080028005E-004 
 2.298579455104685E-004  2.355354367645771E-004  2.413531620526619E-004  2.473145851553650E-004 
 2.534232554087014E-004  2.596828098173038E-004  2.660969752197880E-004  2.726695705077103E-004 
 2.794045088992470E-004  2.863058002690660E-004  2.933775535357090E-004  3.006239791080469E-004 
 3.080493913920019E-004  3.156582113593917E-004  3.234549691799698E-004  3.314443069187115E-004 
 3.396309812996126E-004  3.480198665377119E-004  3.566159572411887E-004  3.654243713850505E-004 
 3.744503533582643E-004  3.836992770862096E-004  3.931766492302358E-004  4.028881124662264E-004 
 4.128394488441461E-004  4.230365832305958E-004  4.334855868363788E-004  4.441926808312449E-004 
 4.551642400477700E-004  4.664067967769531E-004  4.779270446573388E-004  4.897318426603729E-004 
 5.018282191740893E-004  5.142233761876908E-004  5.269246935795358E-004  5.399397335109491E-004 
 5.532762449286585E-004  5.669421681783999E-004  5.809456397323938E-004  5.952949970337982E-004 
 6.099987834605224E-004  6.250657534119946E-004  6.405048775212941E-004  6.563253479960673E-004 
 6.725365840915688E-004  6.891482377186335E-004  7.061701991902650E-004  7.236126031102797E-004 
 7.414858344071062E-004  7.598005345169605E-004  7.785676077195204E-004  7.977982276301990E-004 
 8.175038438526518E-004  8.376961887958119E-004  8.583872846590656E-004  8.795894505901540E-004 
 9.013153100197306E-004  9.235777981772096E-004  9.463901697921992E-004  9.697660069860602E-004 
 9.937192273586134E-004  1.018264092274366E-003  1.043415215353551E-003  1.069187571172783E-003 
 1.095596504180754E-003  1.122657737834015E-003  1.150387383958528E-003  1.178801952342288E-003 
 1.207918360565157E-003  1.237753944071116E-003  1.268326466489657E-003  1.299654130211966E-003 
 1.331755587228204E-003  1.364649950232726E-003  1.398356804003481E-003  1.432896217062351E-003 
 1.468288753623801E-003  1.504555485838301E-003  1.541718006338508E-003  1.579798441095072E-003 
 1.618819462590115E-003  1.658804303316104E-003  1.699776769608020E-003  1.741761255817328E-003 
 1.784782758836009E-003  1.828866892979273E-003  1.874039905235851E-003  1.920328690895173E-003 
 1.967760809560281E-003  2.016364501556438E-003  2.066168704744864E-003  2.117203071752065E-003 
 2.169497987624344E-003  2.223084587918679E-003  2.277994777240248E-003  2.334261248238082E-003 
 2.391917501069585E-003  2.450997863345929E-003  2.511537510570624E-003  2.573572487081785E-003 
 2.637139727512695E-003  2.702277078782297E-003  2.769023322628246E-003  2.837418198697009E-003 
 2.907502428204926E-003  2.979317738181444E-003  3.052906886314554E-003  3.128313686406696E-003 
 3.205583034460929E-003  3.284760935411980E-003  3.365894530516582E-003  3.449032125420416E-003 
 3.534223218918263E-003  3.621518532425651E-003  3.710970040176636E-003  3.802631000168967E-003 
 3.896555985872955E-003  3.992800918724068E-003  4.091423101416584E-003  4.192481252021697E-003 
 4.296035538946471E-003  4.402147616758468E-003  4.510880662892462E-003  4.622299415265788E-003 
 4.736470210822847E-003  4.853461025030218E-003  4.973341512348520E-003  5.096183047703420E-003 
 5.222058768981708E-003  5.351043620575575E-003  5.483214398003903E-003  5.618649793634486E-003 
 5.757430443537422E-003  5.899638975492621E-003  6.045360058187302E-003  6.194680451624687E-003 
 6.347689058779788E-003  6.504476978531545E-003  6.665137559901332E-003  6.829766457630776E-003 
 6.998461689134263E-003  7.171323692855910E-003  7.348455388069531E-003  7.529962236154808E-003 
 7.715952303387965E-003  7.906536325281576E-003  8.101827772515996E-003  8.301942918497274E-003 
 8.507000908584026E-003  8.717123831025960E-003  8.932436789652347E-003  9.153067978356848E-003 
 9.379148757422287E-003  9.610813731730596E-003  9.848200830904239E-003  1.009145139142770E-002 
 1.034071024079585E-002  1.059612578374365E-002  1.085785009060201E-002  1.112603898783995E-002 
 1.140085215083957E-002  1.168245319896526E-002  1.197100979297983E-002  1.226669373486637E-002 
 1.256968107011747E-002  1.288015219254954E-002  1.319829195170528E-002  1.352428976291253E-002 
 1.385833972005642E-002  1.420064071114186E-002  1.455139653670712E-002  1.491081603116360E-002 
 1.527911318713337E-002  1.565650728285573E-002  1.604322301274215E-002  1.643949062115701E-002 
 1.684554603949951E-002  1.726163102667510E-002  1.768799331303400E-002  1.812488674786591E-002 
 1.857257145053825E-002  1.903131396536661E-002  1.950138742031113E-002  1.998307168959276E-002 
 2.047665356032565E-002  2.098242690326562E-002  2.150069284777641E-002  2.203175996111659E-002 
 2.257594443215608E-002  2.313357025963033E-002  2.370496944504310E-002  2.429048219033585E-002 
 2.489045710043651E-002  2.550525139081716E-002  2.613523110017027E-002  2.678077130834577E-002 
 2.744225635966231E-002  2.812008009174391E-002  2.881464607001035E-002  2.952636782794028E-002 
 3.025566911329055E-002  3.100298414038857E-002  3.176875784865647E-002  3.255344616751817E-002 
 3.335751628785550E-002  3.418144694016688E-002  3.502572867958726E-002  3.589086417797435E-002 
 3.677736852317071E-002  3.768576952569331E-002  3.861660803297720E-002  3.957043825139059E-002 
 4.054782807619939E-002  4.154935942968377E-002  4.257562860759705E-002  4.362724663420350E-002 
 4.470483962606858E-002  4.580904916483294E-002  4.694053267920254E-002  4.809996383637889E-002 
 4.928803294313948E-002  5.050544735683446E-002  5.175293190654807E-002  5.303122932464006E-002 
 5.434110068895931E-002  5.568332587597433E-002  5.705870402511268E-002  5.846805401453204E-002 
 5.991221494869092E-002  6.139204665792412E-002  6.290843021037430E-002  6.446226843657014E-002 
 6.605448646695324E-002  6.768603228268862E-002  6.935787728007060E-002  7.107101684888810E-002 
 7.282647096505622E-002  7.462528479789297E-002  7.646852933239931E-002  7.835730200691111E-002 
 8.029272736648180E-002  8.227595773243233E-002  8.430817388842474E-002  8.639058578346931E-002 
 8.852443325232136E-002  9.071098675365356E-002  9.295154812646703E-002  9.524745136519032E-002 
 9.760006341391285E-002  1.000107849802357E-001  1.024810513692479E-001  1.050123333380683E-001 
 1.076061379715170E-001  1.102640095794154E-001  1.129875306160258E-001  1.157783226222404E-001 
 1.186380471910121E-001  1.215684069566279E-001  1.245711466084586E-001  1.276480539296863E-001 
 1.308009608617494E-001  1.340317445950349E-001  1.373423286865320E-001  1.407346842050895E-001 
 1.442108309049555E-001  1.477728384283089E-001  1.514228275374871E-001  1.551629713776638E-001 
 1.589954967706918E-001  1.629226855409266E-001  1.669468758737886E-001  1.710704637078706E-001 
 1.752959041614540E-001  1.796257129942440E-001  1.840624681052013E-001  1.886088110673994E-001 
 1.932674487007636E-001  1.980411546836736E-001  2.029327712043599E-001  2.079452106531070E-001 
 2.130814573562384E-001  2.183445693529387E-001  2.237376802159555E-001  2.292640009172908E-001 
 2.349268217399469E-001  2.407295142369247E-001  2.466755332385802E-001  2.527684189095746E-001 
 2.590117988566314E-001  2.654093902883899E-001  2.719650022285067E-001  2.786825377835520E-001 
 2.855659964668060E-001  2.926194765795416E-001  2.998471776510617E-001  3.072534029390533E-001 
 3.148425619916243E-001  3.226191732728290E-001  3.305878668526581E-001  3.387533871639332E-001 
 3.471205958268859E-001  3.556944745437903E-001  3.644801280650375E-001  3.734827872282386E-001 
 3.827078120727733E-001  3.921606950309774E-001  4.018470641982404E-001  4.117726866839393E-001 
 4.219434720450397E-001  4.323654758045348E-001  4.430449030569191E-001  4.539881121624294E-001 
 4.652016185328330E-001  4.766920985105950E-001  4.884663933438154E-001  5.005315132593996E-001 
 5.128946416369031E-001  5.255631392853433E-001  5.385445488256881E-001  5.518465991816796E-001 
 5.654772101814565E-001  5.794444972729553E-001  5.937567763555757E-001  6.084225687315760E-001 
 6.234506061792491E-001  6.388498361518795E-001  6.546294271048244E-001  6.707987739543047E-001 
 6.873675036709816E-001  7.043454810116616E-001  7.217428143926408E-001  7.395698619081329E-001 
 7.578372374972677E-001  7.765558172634413E-001  7.957367459498513E-001  8.153914435748272E-001 
 8.355316122311254E-001  8.561692430532214E-001  8.773166233566418E-001  8.989863439535398E-001 
 9.211913066491928E-001  9.439447319234299E-001  9.672601668019372E-001  9.911514929219569E-001 
 1.015632934797116E+000  1.040719068286625E+000  1.066424829273296E+000  1.092765522556346E+000 
 1.119756830963489E+000  1.147414824688282E+000  1.175755970858081E+000  1.204797143338277E+000 
 1.234555632778732E+000  1.265049156908383E+000  1.296295871084000E+000  1.328314379099794E+000 
 1.361123744263553E+000  1.394743500746861E+000  1.429193665215301E+000  1.464494748746119E+000 
 1.500667769040144E+000  1.537734262935444E+000  1.575716299229955E+000  1.614636491820939E+000 
 1.654518013168893E+000  1.695384608094170E+000  1.737260607914105E+000  1.780170944929591E+000 
 1.824141167269338E+000  1.869197454100886E+000  1.915366631217198E+000
    </PP_RAB>
  </PP_MESH>
  <PP_LOCAL type="real" size="539" columns="4">
-2.148483919980800E+000 -2.148483956451600E+000 -2.148483992003400E+000 -2.148484026656600E+000 
-2.148484060430600E+000 -2.148484093344400E+000 -2.148484125416400E+000 -2.148484156664600E+000 
-2.148484187106400E+000 -2.148484216758200E+000 -2.148484245636600E+000 -2.148484273757200E+000 
-2.148484301135000E+000 -2.148484327784800E+000 -2.148484353721000E+000 -2.148484378956800E+000 
-2.148484403505400E+000 -2.148484427379600E+000 -2.148484450591600E+000 -2.148484473152800E+000 
-2.148484495074200E+000 -2.148484516366800E+000 -2.148484537040600E+000 -2.148484557105000E+000 
-2.148484576569400E+000 -2.148484595442400E+000 -2.148484613732000E+000 -2.148484631445800E+000 
-2.148484648591200E+000 -2.148484665174800E+000 -2.148484681202400E+000 -2.148484696679800E+000 
-2.148484711612200E+000 -2.148484726003800E+000 -2.148484739858800E+000 -2.148484753180600E+000 
-2.148484765972000E+000 -2.148484778235400E+000 -2.148484789972400E+000 -2.148484801184400E+000 
-2.148484811871800E+000 -2.148484822034400E+000 -2.148484831671600E+000 -2.148484840782000E+000 
-2.148484849363600E+000 -2.148484857413400E+000 -2.148484864928400E+000 -2.148484871904000E+000 
-2.148484878335400E+000 -2.148484884217000E+000 -2.148484889542200E+000 -2.148484894303600E+000 
-2.148484898493000E+000 -2.148484902101200E+000 -2.148484905118400E+000 -2.148484907533200E+000 
-2.148484909334000E+000 -2.148484910507400E+000 -2.148484911039400E+000 -2.148484910914600E+000 